/*--------------------------------*- C++ -*----------------------------------*\
| =========                 |                                                 |
| \\      /  F ield         | OpenFOAM: The Open Source CFD Toolbox           |
|  \\    /   O peration     | Version:  2.4.x                                 |
|   \\  /    A nd           | Web:      www.OpenFOAM.org                      |
|    \\/     M anipulation  |                                                 |
\*---------------------------------------------------------------------------*/
FoamFile
{
    version     2.0;
    format      ascii;
    class       volScalarField;
    location    "1000";
    object      H2O;
}
// * * * * * * * * * * * * * * * * * * * * * * * * * * * * * * * * * * * * * //

dimensions      [0 0 0 0 0 0 0];

internalField   nonuniform List<scalar> 
1629
(
9.64285141038e-07
7.29995557139e-07
1.00752439888e-07
2.29411153754e-06
1.19219959896e-06
1.38458048701e-06
5.9986366735e-06
2.60143616963e-05
0.000201165557401
0.000214623235607
0.00202301277522
0.0260864238442
0.000794572235492
0.00561364982733
0.0445114454089
0.00192329926816
0.0106622210739
0.0596817248879
0.00381603032964
0.0170222559659
0.0719549557325
0.00671895984239
0.0244572027196
0.0818115424225
0.0108783528366
0.0326916600321
0.0899235210242
0.0164720895325
0.0414373311972
0.0968828772888
0.0235222106429
0.0504097829909
0.103077314125
0.0318531781835
0.0593848268678
0.108746189238
0.0412003115168
0.0683050189581
0.114120482425
0.0514521686303
0.0773769531207
0.119476306256
0.0628374218962
0.0870459786583
0.125147940491
0.0760336971622
0.0980176672601
0.131585262398
0.092083294817
0.111046198795
0.139337093775
0.11119102931
0.126124122524
0.148911388979
0.13176265935
0.142699944266
0.160662098677
0.152858062816
0.160721642005
0.174457512612
0.174021524275
0.179436453246
0.189311607304
0.193509707923
0.19701051408
0.203641492071
0.209501559794
0.211684701767
0.215952942221
0.221170448325
0.222577663315
0.225385311243
0.22874805755
0.229774012911
0.231835050679
0.233122567549
0.233999868957
0.235762727654
0.235411752193
0.236242301153
0.237914987864
0.236661375957
0.237461184718
0.23908210419
0.237663594133
0.238404771787
0.239920793079
0.238877185042
0.239521558444
0.240854545923
0.240448952178
0.240970016935
0.24206211779
0.242311021037
0.242702762525
0.243536166089
0.244301184712
0.244576114137
0.245170813674
0.246258386639
0.246439909479
0.246839595617
0.248068932204
0.248183501937
0.248440052034
0.24967247755
0.249744256066
0.24990657726
0.251049889508
0.251098189931
0.251206391748
0.252208420134
0.252247040338
0.252330606874
0.253169175099
0.253206887085
0.253285213623
0.253958914885
0.254000388033
0.254084415797
0.254605334398
0.254652196519
0.254746421919
0.255134643089
0.255186510514
0.255291001356
0.255570426692
0.25562577402
0.255737954328
0.255933173191
0.255990005785
0.256106066995
0.256240302258
0.256296619575
0.256412527471
0.256506144243
0.25656021585
0.256672349884
0.256742287508
0.256792790472
0.25689828002
0.256957671128
0.257003714664
0.257100544737
0.25715902963
0.257200135551
0.257287131171
0.257351136619
0.257387175201
0.257463894297
0.257537333544
0.257568453789
0.257635052591
0.257719692071
0.257746243738
0.25780332417
0.257899469379
0.257921940221
0.257970414113
0.258077410078
0.258096358477
0.258137308332
0.258253305495
0.25826924326
0.258303644836
0.258425301792
0.258438588862
0.258467095603
0.258583268057
0.258593856675
0.258616215622
0.258684224204
0.258690447166
0.258702428397
0.258463075564
0.258454821505
0.258433370909
0.255762884714
0.255663421814
0.255431856435
0.235957244682
0.235714288294
0.235184467725
0.213438793189
0.213138400658
0.212493272583
0.19382855357
0.193509221664
0.192827557732
0.179909635503
0.177247777108
0.168067789586
0.162794793835
0.159850625086
0.158405572961
0.157915464908
0.157918979998
0.158089403746
0.158356442554
0.158887423155
0.15996911486
0.162006808294
0.165512127823
0.170961616802
0.178632978302
0.188361352624
0.199377680743
0.210468073326
0.220414697742
0.228398242542
0.234144400524
0.237844025324
0.239980813077
0.241149672591
0.241899410444
0.242625972275
0.243537025584
0.244679291959
0.245998686837
0.247402931984
0.248803627294
0.250134159355
0.251352248049
0.252436146414
0.253378961597
0.25418360941
0.254859293274
0.255419282918
0.255879192335
0.256255581841
0.256564875387
0.256822332678
0.257041532854
0.25723378988
0.257408238947
0.257571774199
0.257729505967
0.257884829662
0.258039956069
0.258196164498
0.25835295391
0.258507578819
0.258647393409
0.258717458974
0.258400382315
0.255099488008
0.234482195136
0.211631666464
0.191908782425
3.04357993235e-07
1.267289639e-07
7.4650400229e-08
4.32349705411e-08
1.86761260714e-08
5.9025923296e-09
1.40830888718e-09
2.61462802022e-10
3.86047563527e-11
4.60474019772e-12
4.49029852146e-13
3.6141413722e-14
2.42307042127e-15
1.36285834398e-16
6.51110091428e-18
2.65005661335e-19
9.46656932936e-21
2.90256315026e-22
8.1593532111e-24
1.25704773282e-25
5.6646266991e-05
1.48429844919e-05
3.86509068406e-06
1.30949787211e-06
4.00944071769e-07
9.89650007956e-08
1.91431203354e-08
2.93885036968e-09
3.65098396664e-10
3.72991096238e-11
3.17188714296e-12
2.26667419818e-13
1.37290956692e-14
7.09979149501e-16
3.17031100615e-17
1.23031548488e-18
4.25284173614e-20
1.30274641207e-21
3.63661313258e-23
5.49375879477e-25
0.00491620305993
0.000933933821758
0.000121230169223
2.53143563975e-05
4.65006479317e-06
8.44862176683e-07
1.3369745873e-07
1.75781250496e-08
1.92168211839e-09
1.76269187191e-10
1.36693082062e-11
9.01858378632e-13
5.09347082526e-14
2.480800394e-15
1.05229811371e-16
3.93711550206e-18
1.32507967266e-19
4.08990143354e-21
1.15324441699e-22
1.68941435511e-24
0.211715861166
0.0165966017869
0.00259031866839
0.000441051184318
3.95571581787e-05
5.50640880234e-06
7.64686208566e-07
9.42948895358e-08
9.84959792528e-09
8.68979049456e-10
6.50501020805e-11
4.1532675744e-12
2.27436292001e-13
1.07688075606e-14
4.45490055054e-16
1.63828175375e-17
5.47133895818e-19
1.7231478505e-20
5.09611183195e-22
1.04185408897e-23
0.287142067347
0.0532989270525
0.0076874173504
0.00154498018448
0.000153876957288
2.15047977997e-05
2.96157650228e-06
3.7675974127e-07
4.07951683158e-08
3.70123221839e-09
2.82793641839e-10
1.83293269582e-11
1.0150998899e-12
4.85092679898e-14
2.02380305309e-15
7.52779982847e-17
2.55617364836e-18
8.34764751702e-20
2.62097940437e-21
7.05766525519e-23
0.301226300142
0.131669382028
0.0167046413669
0.0032801403288
0.000541812951993
5.55422402523e-05
8.16392572688e-06
1.12409097401e-06
1.32470942507e-07
1.29286416923e-08
1.04885093584e-09
7.14393736258e-11
4.12549635533e-12
2.0446803522e-13
8.81460658445e-15
3.38570266611e-16
1.18839370618e-17
4.05274013004e-19
1.34257208806e-20
4.32521152627e-22
0.292652996038
0.250679526093
0.0256858545155
0.00528387134172
0.00108224172657
0.00011836670396
1.83814448636e-05
2.72610129509e-06
3.53014649502e-07
3.77548556573e-08
3.32107180614e-09
2.42697971548e-10
1.49031189813e-11
7.79853454022e-13
3.52950769665e-14
1.41829170485e-15
5.19351612964e-17
1.85019258515e-18
6.38496752424e-20
2.25574130229e-21
0.278689579414
0.280944405456
0.0399276688975
0.00769512660231
0.00169869529657
0.000273678632024
3.40899545221e-05
5.57253105601e-06
8.00588255796e-07
9.48002005575e-08
9.14510622129e-09
7.25507055119e-10
4.79282081447e-11
2.67738676436e-12
1.28482522055e-13
5.44357867781e-15
2.08915078086e-16
7.752285597e-18
2.7499240554e-19
9.9776459839e-21
0.266242866223
0.287729009752
0.0639116442434
0.011000578349
0.00250825643629
0.000490147055907
6.0856819064e-05
1.04829854458e-05
1.63495434961e-06
2.12730561002e-07
2.24980683976e-08
1.94374439909e-09
1.38821915238e-10
8.32464851604e-12
4.25845394048e-13
1.90991338302e-14
7.69525660371e-16
2.96238162963e-17
1.06819653087e-18
3.8171990869e-20
0.255922691244
0.291017947587
0.101219441789
0.0154733504682
0.00356029229879
0.000784429999353
0.000101717143037
1.84301650969e-05
3.08389096806e-06
4.37244251269e-07
5.05033292473e-08
4.74748996818e-09
3.66903567102e-10
2.36629011433e-11
1.29312992144e-12
6.14775271465e-14
2.60010862349e-15
1.03423542237e-16
3.75930223785e-18
1.2900822905e-19
0.246870241441
0.290813287236
0.153692427874
0.0212608894668
0.0048893730124
0.00117171319661
0.000160948573967
3.05458654148e-05
5.44082210926e-06
8.35019317363e-07
1.04924034651e-07
1.0709755506e-08
8.94918798031e-10
6.20696981143e-11
3.62450581155e-12
1.82615055987e-13
8.09822073156e-15
3.31671006747e-16
1.20797839333e-17
3.92148426676e-19
0.238269041698
0.286013771356
0.215552040728
0.0291454625643
0.00653907502133
0.00160473064137
0.000289122149787
4.60778923814e-05
8.91793497857e-06
1.48757679792e-06
2.03363343649e-07
2.25202359796e-08
2.03279308077e-09
1.51503890455e-10
9.44679433172e-12
5.03892369011e-13
2.33945391187e-14
9.8388276215e-16
3.57646289532e-17
1.08970616677e-18
0.230028366461
0.277539558396
0.253976153178
0.0420906269224
0.0086252011994
0.00214328275493
0.000451262450542
6.98246362361e-05
1.41107845159e-05
2.52039033991e-06
3.72455176056e-07
4.4598021504e-08
4.33910746127e-09
3.46920169391e-10
2.30652040418e-11
1.30053097853e-12
6.31144760345e-14
2.72051706213e-15
9.8492475278e-17
2.80903029307e-18
0.222825810878
0.268384470555
0.258833436068
0.0617165051719
0.0112644108592
0.00280984453777
0.000656223186203
0.00010337236473
2.17017514045e-05
4.10902836892e-06
6.51667578887e-07
8.39854287059e-08
8.7792606494e-09
7.51121544852e-10
5.31406295439e-11
3.16165782711e-12
1.60134559637e-13
7.06663512068e-15
2.54642280703e-16
6.80440848721e-18
0.2169954193
0.261465868163
0.264844455199
0.091476219547
0.0147505335961
0.00365712619804
0.000919524599091
0.000149933132949
3.25563587651e-05
6.48846630571e-06
1.09758046433e-06
1.51557582831e-07
1.69626543902e-08
1.54864280995e-09
1.16320354552e-10
7.28859991185e-12
3.84749566812e-13
1.73743820437e-14
6.234886626e-16
1.56644556639e-17
0.212605715435
0.255843638221
0.269588723236
0.134135584467
0.0194681819781
0.00475811986615
0.00122279037858
0.000246274901169
4.60356052506e-05
9.83678707051e-06
1.78035725837e-06
2.63121405123e-07
3.14637892408e-08
3.05827336039e-09
2.43362759328e-10
1.60324526578e-11
8.81107478874e-13
4.07209929624e-14
1.45739748654e-15
3.46108255448e-17
0.209765155442
0.250632569924
0.270697938704
0.187996505765
0.0267326290797
0.00624497652288
0.00162449614643
0.000371037251466
6.64547408306e-05
1.46912369087e-05
2.81121514393e-06
4.42380403068e-07
5.63404051184e-08
5.8160545817e-09
4.89329218683e-10
3.38418898788e-11
1.93484954455e-12
9.15719471113e-14
3.27575901183e-15
7.40274522857e-17
0.208595471151
0.245565210945
0.267640414591
0.245156410667
0.0398920625794
0.00829986865941
0.00214995479136
0.000532334660307
9.526534767e-05
2.16615718817e-05
4.34638678375e-06
7.24255040234e-07
9.78882541831e-08
1.07043271116e-08
9.50327717748e-10
6.89081238655e-11
4.09656447566e-12
1.98743151704e-13
7.12537498174e-15
1.54402879756e-16
0.209320374769
0.241711141693
0.262877830429
0.254444127651
0.0605789399228
0.011054206864
0.00283038395147
0.000740875075127
0.000134906077037
3.14697713217e-05
6.59110077927e-06
1.15839716871e-06
1.65658233571e-07
1.91456584912e-08
1.79050308696e-09
1.35976519318e-10
8.40397521842e-12
4.18476539396e-13
1.50830213132e-14
3.16030865216e-16
0.212021145313
0.239553776755
0.25911879621
0.257804933888
0.0920672671724
0.0150625924899
0.00375733630861
0.00098855253233
0.000214536923271
4.35355180823e-05
9.69949276365e-06
1.80633833126e-06
2.73421037919e-07
3.33698292024e-08
3.28407814642e-09
2.61060259077e-10
1.67762338263e-11
8.58734974406e-13
3.12192286504e-14
6.38147248393e-16
0.216467842213
0.239222232815
0.257224018841
0.26295262317
0.136294221089
0.0213641904351
0.00509150163601
0.00133409223655
0.000319602347353
6.174153845e-05
1.41591719031e-05
2.76744641076e-06
4.41900586523e-07
5.68595238035e-08
5.88286667085e-09
4.89325750969e-10
3.27076680937e-11
1.7239595788e-12
6.34361530649e-14
1.27661207788e-15
0.222072164671
0.24035500335
0.25634945249
0.265289656933
0.190576248718
0.0316871837577
0.0070723057763
0.00182477029647
0.000461889176774
8.77478362996e-05
2.05559083417e-05
4.18495304546e-06
7.01952980418e-07
9.50129124444e-08
1.03228145715e-08
8.98171615e-10
6.24780084132e-11
3.39686155601e-12
1.26952582074e-13
2.53807689717e-15
0.228040481935
0.242376277569
0.255871117513
0.265047714535
0.24769538339
0.047603152657
0.00993554606174
0.00251079871768
0.000655464008639
0.000123639406915
2.95751781445e-05
6.24982728163e-06
1.09795552531e-06
1.56048845914e-07
1.7786177381e-08
1.61854100215e-09
1.17238619247e-10
6.58648277758e-12
2.50866154103e-13
5.0259932158e-15
0.233615061238
0.244749580249
0.255751832157
0.263488355078
0.256402863623
0.0700572678038
0.0138843992805
0.00343289506282
0.000914275930978
0.000172291929545
4.19870565888e-05
9.19745558354e-06
1.69057723864e-06
2.52120155978e-07
3.01360609801e-08
2.86871352003e-09
2.16548167379e-10
1.25930045792e-11
4.90405948e-13
9.92546501756e-15
0.238248659678
0.247025021719
0.25589566929
0.262196393648
0.257759317535
0.0994196810464
0.0193587139334
0.00465917703891
0.00121902508607
0.000269125805839
5.67713864653e-05
1.31606997251e-05
2.54965817328e-06
4.00116802957e-07
5.02204518866e-08
5.00563888263e-09
3.94226441457e-10
2.37741291011e-11
9.49571857806e-13
1.9559101595e-14
0.241679264127
0.248880867187
0.256105438825
0.26130796849
0.258612362412
0.13373919445
0.0270634552994
0.00631583873588
0.0016292733234
0.00039285313479
7.84190085991e-05
1.86655156747e-05
3.78591790791e-06
6.24702613177e-07
8.23808855878e-08
8.60591290944e-09
7.08008407356e-10
4.43572763093e-11
1.82251984724e-12
3.84631574629e-14
0.243924054172
0.250151789478
0.256195377647
0.26060184878
0.259236848371
0.169487897645
0.0376563463176
0.00855920643374
0.00218271504641
0.00055457395997
0.000108427177723
2.6321750094e-05
5.5565086402e-06
9.61798219474e-07
1.33202746416e-07
1.45913216762e-08
1.25528084002e-09
8.18360548265e-11
3.46831384573e-12
7.54536286818e-14
0.24521283023
0.250829682064
0.256059952046
0.259912338323
0.259659205436
0.203566496324
0.0516109015861
0.0115711843366
0.00292494241623
0.000768051415436
0.000149237425438
3.68414009e-05
8.06565249459e-06
1.46167513924e-06
2.12466918718e-07
2.44118312642e-08
2.19795433607e-09
1.49321877561e-10
6.54377050708e-12
1.4754785465e-13
0.245883215998
0.251031438824
0.255690652617
0.2591826856
0.260002061487
0.234217239751
0.0690887163335
0.015561204087
0.00390412758406
0.00101822065608
0.000229091194522
4.94165518666e-05
1.14332434676e-05
2.18249745332e-06
3.33740265007e-07
4.02729561734e-08
3.79940550259e-09
2.69372703669e-10
1.22341841189e-11
2.87291633981e-13
0.2462721403
0.250942661615
0.255155227808
0.2584106723
0.259987254386
0.252345296791
0.0891348031998
0.0205815518854
0.00514142143138
0.00134074495976
0.00032851356767
6.75539876661e-05
1.60675046218e-05
3.21152040935e-06
5.16315310035e-07
6.54817953712e-08
6.47998301655e-09
4.80114265295e-10
2.26457396599e-11
5.56215088196e-13
0.246639864545
0.250759050094
0.254562247865
0.25762318783
0.259396510995
0.254072699859
0.111921282712
0.0268170205446
0.00666733727153
0.00174782407558
0.000452719278088
9.20726987803e-05
2.24076662775e-05
4.66742164905e-06
7.87488089498e-07
1.04949537095e-07
1.09004831477e-08
8.44917768056e-10
4.14615277831e-11
1.06913194915e-12
0.247139297759
0.250640368172
0.254024932171
0.25689455387
0.258744184569
0.254398551285
0.135827811237
0.0348834460636
0.0086068859098
0.00226856594821
0.000610564787355
0.000124295352159
3.09750585121e-05
6.70709051824e-06
1.18545641108e-06
1.65898841471e-07
1.8085965588e-08
1.4674837644e-09
7.50193611307e-11
2.03726514739e-12
0.247823095976
0.250685551579
0.253632192969
0.256284279844
0.258151679556
0.254714127056
0.159104299954
0.0454308461592
0.0111461430289
0.00294582772225
0.000814406876018
0.000166443362191
4.23944344123e-05
9.5267705599e-06
1.76169523086e-06
2.58700440928e-07
2.95961018432e-08
2.51443065376e-09
1.3403242275e-10
3.84305558754e-12
0.248674536499
0.250932478886
0.253435357499
0.255834361603
0.257662103301
0.255100312933
0.180645296468
0.0588446402219
0.0145028730439
0.00382947406701
0.00105034033358
0.000246080630338
5.56686042499e-05
1.32200284857e-05
2.57255948994e-06
3.97155196379e-07
4.77127672188e-08
4.24630221286e-09
2.36204717552e-10
7.16583428867e-12
0.249642061119
0.251372416638
0.253449792914
0.255569555497
0.257305418881
0.255562235225
0.199901576502
0.0750727033127
0.0189544546234
0.00497907847065
0.00135822261807
0.000344219254802
7.43470401277e-05
1.81621635588e-05
3.69846707281e-06
5.99840942985e-07
7.56921633307e-08
7.0594939147e-09
4.10057541991e-10
1.31861380383e-11
0.250664802239
0.251968033843
0.253661613281
0.255493897206
0.257099424286
0.2561034165
0.216928707347
0.0931972321806
0.0248348676922
0.00646589536943
0.00175452317276
0.000465799864001
9.90600786924e-05
2.47206118132e-05
5.24062368442e-06
8.91204102529e-07
1.18071755053e-07
1.15415460606e-08
7.00366030426e-10
2.39089476361e-11
0.251687039983
0.252668568754
0.254036274798
0.255593500669
0.257047922626
0.256733336212
0.23200057926
0.111707340426
0.0324378898263
0.00837745007097
0.0022591317342
0.000616631332827
0.000130572765988
3.32593433781e-05
7.3183815795e-06
1.30250415813e-06
1.81033872305e-07
1.8543032778e-08
1.17573220372e-09
4.26669948514e-11
0.252664618652
0.253421058447
0.254527714219
0.255838430125
0.257139338455
0.257437887006
0.245009396541
0.129375489698
0.0417844253327
0.0108089047821
0.00289744912029
0.000804079567556
0.00017019142508
4.41717803685e-05
1.00686957045e-05
1.87270098984e-06
2.72825682395e-07
2.92691822442e-08
1.93891560834e-09
7.48726755706e-11
0.25356607784
0.254177479897
0.25508610531
0.256186969648
0.257325737912
0.257877364005
0.251100908269
0.145179631329
0.0529646606919
0.0139178734626
0.00370634043173
0.00101491816811
0.000240395305608
5.63699496714e-05
1.35265714569e-05
2.64109045704e-06
4.03756534198e-07
4.53716316568e-08
3.13981776429e-09
1.29107233978e-10
0.254371515881
0.25489831273
0.255664009765
0.256593975918
0.257568356423
0.258054188419
0.252218313359
0.158951438193
0.0658025387135
0.0179618089325
0.00474258132134
0.00128298806278
0.000324035422147
7.27873885271e-05
1.79546971384e-05
3.66253498619e-06
5.86992972613e-07
6.90686715486e-08
4.99154143296e-09
2.18641472593e-10
0.255070961617
0.255554335313
0.256221176162
0.257018258169
0.25784834478
0.258219813515
0.252845829227
0.171335871296
0.0792932129079
0.0232019152949
0.00607987824422
0.00162406925184
0.00042493913661
9.37907993428e-05
2.36012754188e-05
5.00432353029e-06
8.39069151319e-07
1.03276414064e-07
7.78936499439e-09
3.63489276132e-10
0.2556630225
0.25612759555
0.256727883366
0.257425203831
0.258136966762
0.258407180033
0.253441125183
0.182503641209
0.0925128161889
0.0298086414396
0.00780973871746
0.00205803433589
0.00054763293541
0.000119873520423
3.07041340029e-05
6.74330442427e-06
1.18016628418e-06
1.51740332704e-07
1.19322460396e-08
5.93129116281e-10
0.256153203104
0.25661072722
0.257166041417
0.257790097261
0.258409945164
0.258600741194
0.254022750894
0.192396317915
0.104841440569
0.0377143914853
0.0100459725276
0.00261183887508
0.000695668009438
0.000153426575025
3.96640193589e-05
8.97682539783e-06
1.63510356145e-06
2.19207134282e-07
1.794822894e-08
9.50076389331e-10
0.256552030004
0.257005282125
0.257528412799
0.258098679208
0.258649120807
0.258780639361
0.25455637331
0.200828688347
0.115670229173
0.0467690517089
0.0129375971726
0.00332260802429
0.000865180909709
0.000206355403525
4.94367609544e-05
1.17092945868e-05
2.22701347432e-06
3.1127750154e-07
2.65136236261e-08
1.49435290006e-09
0.256873149464
0.257319352423
0.257816519901
0.258346004934
0.258844208835
0.258931948344
0.255011273111
0.207739376807
0.12511848483
0.0563296641569
0.0166192649753
0.00423748385323
0.00107810650131
0.000267495643838
6.19985023621e-05
1.5085493172e-05
2.98581866914e-06
4.34632708622e-07
3.84760711611e-08
2.30907046033e-09
0.257131443884
0.257565054365
0.258038046114
0.25853442766
0.25899205601
0.259045367831
0.255361226942
0.213131558162
0.133345552266
0.0656754403119
0.0211488309085
0.00541606012705
0.00134650172185
0.000339185529883
7.74788546856e-05
1.9234244067e-05
3.94656644454e-06
5.9718743295e-07
5.48823395765e-08
3.50763135964e-09
0.257341646831
0.257756368115
0.258204362495
0.258671336142
0.259095080218
0.259116247833
0.255582818711
0.217013173835
0.140337470069
0.0742588063986
0.0264808477995
0.00693315287555
0.00168809620784
0.000424420425666
9.60986788696e-05
2.42739086951e-05
5.14807685161e-06
8.08159631536e-07
7.70078321785e-08
5.24295492148e-09
0.257517051688
0.257907106097
0.258328047577
0.258766483413
0.259157987441
0.259136925406
0.255656429374
0.219399863585
0.145969753694
0.0815478685684
0.0325987065365
0.00888147354713
0.00212708322537
0.000527004987181
0.000118187509301
3.03147146311e-05
6.63106641299e-06
1.07793507743e-06
1.06373472604e-07
7.71828181383e-09
0.257669079638
0.258029968623
0.258421536801
0.258830563154
0.259187941399
0.259108567803
0.25556825322
0.220341894421
0.150240913159
0.08774460208
0.0390141043088
0.011327300101
0.00269404117612
0.000649170110052
0.000146265557306
3.7621199962e-05
8.44763588748e-06
1.41842622182e-06
1.44773808805e-07
1.12009510528e-08
0.257806843997
0.258135593904
0.258495781075
0.258873469809
0.259192619747
0.259035405004
0.255303860817
0.219883260706
0.153173442797
0.0929494254677
0.0452425135722
0.0142790948038
0.003430705998
0.00079542260885
0.000183577222539
4.66052298615e-05
1.06691261815e-05
1.84396727649e-06
1.94358052483e-07
1.60414194883e-08
0.257937422783
0.25823262183
0.258559979205
0.25890370949
0.259177430516
0.258911265932
0.254811620438
0.217883570579
0.154775780114
0.0971264687057
0.0506841886586
0.0178459259929
0.00439747762429
0.000983236525686
0.000228545853695
5.60122103953e-05
1.32721307037e-05
2.36592532897e-06
2.57485967111e-07
2.26894424607e-08
0.258065789869
0.258327289352
0.258620668119
0.258926550823
0.259140285592
0.258699829052
0.253871366989
0.214560694483
0.155113815546
0.100264941377
0.0552463476528
0.0218884228453
0.00564813372982
0.00122693522802
0.000280931606798
6.73045848492e-05
1.6319015051e-05
2.99578773654e-06
3.36586917984e-07
3.17024060599e-08
0.258195353706
0.258424043238
0.258682723069
0.258946140329
0.259082643132
0.258404495251
0.252610081713
0.210143215457
0.154256439218
0.102383653875
0.0590381647566
0.0260938687646
0.00720807235549
0.0015461271415
0.000343151026833
8.06093082591e-05
1.98624845779e-05
3.74494350619e-06
4.3414653997e-07
4.38108793137e-08
0.258328154725
0.258525424161
0.258748347091
0.258961735666
0.258993136591
0.257977675581
0.250868690845
0.204511786267
0.152072985136
0.103382144683
0.0620289597308
0.0299722162961
0.00917289631855
0.00197152611515
0.000418798705664
9.61583791035e-05
2.39468855976e-05
4.62340977222e-06
5.52544871984e-07
6.00108632126e-08
0.258463293112
0.258627027606
0.258799399347
0.258902622804
0.258578806945
0.256066367937
0.24157378701
0.197036756686
0.148591177058
0.103284640328
0.0641925951043
0.0332325572689
0.0115583851525
0.0025391280596
0.000512662728737
0.000114301185571
2.86030731561e-05
5.63701787599e-06
6.94186404845e-07
8.14069878604e-08
0.258597127067
0.258721486273
0.258819842309
0.258738135999
0.257827383063
0.253130610974
0.229936320436
0.188341009537
0.144043358943
0.102226355217
0.0655741627244
0.0358999595859
0.0142014623926
0.0032769283527
0.000631112095673
0.000136421367542
3.39179664205e-05
6.78494614296e-06
8.67155988666e-07
1.09535173667e-07
0.258714318918
0.258781174042
0.258750639402
0.258328469978
0.256379724311
0.24819477427
0.217371505095
0.178612362
0.138445595125
0.100207173394
0.0661575354401
0.0379828936744
0.0167365473011
0.00430745901079
0.000789720982373
0.00016363029496
3.99746968144e-05
8.07812943305e-06
1.07618397968e-06
1.46292760852e-07
0.258742681843
0.258666461364
0.258268698789
0.256817123692
0.25168107855
0.232894411864
0.202661633852
0.167790259474
0.131855158913
0.0972641334104
0.0659524715395
0.0394858433344
0.018979009058
0.00563344304317
0.00100938598907
0.000196291627221
4.67521777841e-05
9.57507293964e-06
1.32828922046e-06
1.94069994625e-07
0.258307265943
0.257748024965
0.256115459586
0.251396032671
0.237015708194
0.214706668976
0.186987172167
0.156241789926
0.124486432597
0.0935287745897
0.0650289485625
0.0404297487245
0.0208517495645
0.00714086614827
0.00134969455386
0.000239981388689
5.49831632715e-05
1.13217153266e-05
1.63289109689e-06
2.5593945204e-07
0.254287252997
0.250858809635
0.243598599889
0.23222013323
0.216054563376
0.195405404602
0.171147403462
0.144460821239
0.116681761276
0.0892285025533
0.0635221238578
0.0408724139555
0.0223583064734
0.00871723052075
0.00184237202727
0.000305010694001
6.54853824603e-05
1.34001155668e-05
2.00372160373e-06
3.35966772577e-07
0.232953209791
0.22828150311
0.220554379556
0.20949006734
0.194923959842
0.176991984944
0.156154791278
0.133160065474
0.108983759925
0.084761137338
0.06169960453
0.0409684973073
0.0235814811119
0.0102736677657
0.002514703676
0.000404905342075
7.97123013501e-05
1.59618555049e-05
2.46269365188e-06
4.39794719559e-07
0.209780647389
0.20516416472
0.198068212231
0.188273695424
0.17566080104
0.160289418416
0.142444376793
0.122645888604
0.101630723266
0.08030803071
0.059690146348
0.0408009003855
0.0245727390762
0.0117448856576
0.00337380130161
0.000560507895361
0.000100234123298
1.92760744228e-05
3.04545128509e-06
5.75530348496e-07
0.189936904855
0.185632512363
0.179330835806
0.170826060427
0.159990468096
0.146824923904
0.131498431104
0.114370373957
0.0959915232924
0.0770820412088
0.0584848755121
0.0410970750054
0.0257866308696
0.0133043375123
0.00446094371536
0.000810371665855
0.000132185073368
2.38707710011e-05
3.81380143634e-06
7.53739132593e-07
1.61129839061e-22
2.50932399892e-22
1.39887680473e-22
2.65006478915e-22
2.67357938656e-22
3.33072654565e-22
9.46820008864e-22
9.89768920545e-22
3.37294460206e-21
2.3722427908e-21
1.07007326035e-20
5.55159970299e-21
3.03362733797e-20
1.25107158386e-20
7.80871889384e-20
2.70279872065e-20
1.85757788773e-19
5.62307059767e-20
4.14952777828e-19
1.13421731274e-19
8.82333924702e-19
2.23288918767e-19
1.80663498567e-18
4.31640839787e-19
3.59735988404e-18
8.23807258936e-19
7.02462759932e-18
1.55996571894e-18
1.35506006243e-17
2.94432315339e-18
2.59902243289e-17
5.56364880996e-18
4.98824882116e-17
1.05740596134e-17
9.71472859883e-17
2.04053024744e-17
1.9315371879e-16
4.04292503821e-17
3.87373379658e-16
8.16553184288e-17
7.79914871744e-16
1.66903009344e-16
1.57348919864e-15
3.43730177115e-16
3.17853444461e-15
7.11464378255e-16
6.42486334815e-15
1.47770534795e-15
1.29847646151e-14
3.07588945612e-15
2.62099996542e-14
6.40804083333e-15
5.27661494335e-14
1.33407467544e-14
1.05778482991e-13
2.77056305451e-14
2.10794391502e-13
5.72882270202e-14
4.16875487777e-13
1.17714389182e-13
8.16745248817e-13
2.39886352953e-13
1.5824087823e-12
4.83867526426e-13
3.02649453226e-12
9.64150043785e-13
5.70593550873e-12
1.89466286078e-12
1.06379535665e-11
3.67727008137e-12
1.95599019657e-11
7.04556017082e-12
3.53331113951e-11
1.32755983496e-11
6.25845479464e-11
2.45350857417e-11
1.08610078923e-10
4.44083323028e-11
1.84649185446e-10
7.86753339063e-11
3.07660117326e-10
1.36444894866e-10
5.0273260522e-10
2.31772654464e-10
8.06393517615e-10
3.85946673597e-10
1.27108693475e-09
6.30684511817e-10
1.97098858157e-09
1.01248993486e-09
3.00979299905e-09
1.59856833849e-09
4.53088172365e-09
2.4848088833e-09
6.7298295208e-09
3.80602836045e-09
9.86605099507e-09
5.74786894565e-09
1.42898607047e-08
8.56565778493e-09
2.04739123656e-08
1.26092127783e-08
2.90278719172e-08
1.83468675435e-08
4.07606098238e-08
2.64072903953e-08
5.67442525972e-08
3.76333580069e-08
7.84115872484e-08
5.31615631849e-08
1.07620232165e-07
7.45021178042e-08
1.46768106857e-07
1.03636511027e-07
1.99124947389e-07
1.43218457261e-07
2.69176957303e-07
1.96852397198e-07
3.62685327838e-07
2.69176100278e-07
)
;

boundaryField
{
    inletfuel
    {
        type            fixedValue;
        value           uniform 0;
    }
    inletair
    {
        type            fixedValue;
        value           uniform 0;
    }
    outlet
    {
        type            zeroGradient;
    }
    axis
    {
        type            empty;
    }
    leftside
    {
        type            zeroGradient;
    }
    burnerwall
    {
        type            zeroGradient;
    }
    front
    {
        type            wedge;
    }
    back
    {
        type            wedge;
    }
}


// ************************************************************************* //
