/*--------------------------------*- C++ -*----------------------------------*\
| =========                 |                                                 |
| \\      /  F ield         | OpenFOAM: The Open Source CFD Toolbox           |
|  \\    /   O peration     | Version:  2.4.x                                 |
|   \\  /    A nd           | Web:      www.OpenFOAM.org                      |
|    \\/     M anipulation  |                                                 |
\*---------------------------------------------------------------------------*/
FoamFile
{
    version     2.0;
    format      ascii;
    class       volScalarField;
    location    "1000";
    object      O2;
}
// * * * * * * * * * * * * * * * * * * * * * * * * * * * * * * * * * * * * * //

dimensions      [0 0 0 0 0 0 0];

internalField   nonuniform List<scalar> 
1629
(
0.195341978654
0.0205415047577
0.00122650623468
0.150618967875
0.0201978028132
0.00166497847114
0.0819368913417
0.0109770250306
0.00130764074607
0.0404058743843
0.00720768301839
0.00176238824351
0.0232408267571
0.00680302788822
0.0018234618058
0.0195944350146
0.00836850206469
0.00252247615793
0.0217033002323
0.0107379199074
0.00353095357567
0.0250887773884
0.0129976285957
0.00447902799935
0.027402420137
0.0145203027457
0.00508862553107
0.0277306219564
0.0150258020032
0.00523755305629
0.0261719829504
0.0145709795259
0.00496394209664
0.0234031179181
0.0134326446894
0.00439543156428
0.0201981010041
0.0119227136681
0.00365821057904
0.0170559391476
0.0102279097572
0.00284310866404
0.0140630268384
0.00835830116413
0.00201276280633
0.010925338917
0.00617430391763
0.00122906562494
0.00720689965108
0.00363827993271
0.000586282011689
0.00329571018709
0.00140728460985
0.00019504280982
0.000847117372437
0.000316934213382
4.56480331976e-05
0.00013105372377
5.02645590539e-05
8.97153821837e-06
1.78984351202e-05
7.58926238234e-06
1.5720428426e-06
2.37432710532e-06
1.11094280308e-06
1.90462059773e-07
3.0579839314e-07
1.51148533075e-07
0
3.76241435569e-08
1.64919435649e-08
0
4.01116082079e-09
1.13520349245e-11
0
1.9954419934e-10
0
0
0
0
0
0
0
0
6.45504526559e-11
0
0
1.22898959212e-10
1.17558814019e-10
0
2.04705911238e-10
2.95873375128e-10
3.47339507126e-10
4.1330490243e-10
6.49066300622e-10
1.30699501188e-09
7.54982733633e-10
1.17184552603e-09
2.43829157557e-09
1.21380504187e-09
1.82961412391e-09
3.69005773808e-09
1.80237454592e-09
2.63924979843e-09
5.11538719582e-09
2.49658254089e-09
3.56963158195e-09
6.67975762945e-09
3.1057936189e-09
4.35592257778e-09
7.9117011884e-09
3.28054706048e-09
4.53143914346e-09
8.03111178318e-09
3.20781572785e-09
4.37068564305e-09
7.5775541883e-09
3.41861362171e-09
4.61810007827e-09
7.90350873936e-09
4.19309054198e-09
5.62768405281e-09
9.53703077968e-09
5.54208589451e-09
7.39100763745e-09
1.24002540949e-08
7.38970610977e-09
9.78832047237e-09
1.62449513791e-08
9.72112223287e-09
1.27846341209e-08
2.09775510028e-08
1.26469989415e-08
1.65050297373e-08
2.67560176475e-08
1.64584263228e-08
2.12945878047e-08
3.4058770397e-08
2.17485727088e-08
2.78591740239e-08
4.38714662526e-08
2.9727551143e-08
3.7650917385e-08
5.82569963166e-08
4.28434551834e-08
5.35469758462e-08
8.11458898171e-08
6.56545267685e-08
8.07781726439e-08
1.19392912273e-07
1.07420895337e-07
1.29841808694e-07
1.86481750716e-07
1.90631494442e-07
2.26164451981e-07
3.14965760814e-07
3.64638142117e-07
4.23972876329e-07
5.70606215102e-07
7.63446040697e-07
8.67626001161e-07
1.12254303529e-06
2.28825388149e-06
2.545850243e-06
3.17222895961e-06
7.09026723072e-06
7.7392798566e-06
9.3017321489e-06
2.45560172565e-05
2.61533888801e-05
2.99584302545e-05
9.38076052136e-05
9.82595359095e-05
0.000108979591879
0.000451815222842
0.000468426771642
0.000507250403834
0.00301434182541
0.00311143925198
0.00333569512793
0.0207631691443
0.0209870569166
0.0214747847505
0.0409093759411
0.0411834353305
0.0417717957216
0.0584532357317
0.0587431438252
0.0593619126453
0
0
0
0
0
0
0
0
0.000103243344051
0.00016322289145
0.000169557332151
0.000137039987214
8.99345099876e-05
4.53280932017e-05
1.61515309798e-05
3.65782486463e-06
1.11473021283e-07
0
0
0
0
0
0
0
0
0
0
0
1.95787244765e-09
5.14419627629e-09
7.95222667185e-09
1.07163254968e-08
1.35333451523e-08
1.55408897049e-08
1.53660394622e-08
1.41576502842e-08
1.45777388102e-08
1.74160234069e-08
2.24109816973e-08
2.90321257991e-08
3.70594371979e-08
4.66998968909e-08
5.86622604294e-08
7.44199180347e-08
9.71354530006e-08
1.3253992437e-07
1.90182628601e-07
2.88507489239e-07
4.71980951892e-07
8.24644593094e-07
1.55506384667e-06
4.21649204647e-06
1.18460618467e-05
3.59220674621e-05
0.000125755794182
0.000564220298734
0.00365675430172
0.0221223500591
0.0425584390367
0.0601965607106
0.2320002309
0.232000128475
0.232000004017
0.232000015006
0.23199998844
0.23200003628
0.231999994041
0.232000024626
0.23200000135
0.232000015165
0.232000008622
0.232000010688
0.232000009733
0.232000006405
0.232000005554
0.232000003685
0.232000002825
0.232000002137
0.232000001286
0.232000001119
0.231946782057
0.231986941496
0.231996396201
0.23199891664
0.231999585121
0.231999905623
0.231999939307
0.23199998535
0.231999976135
0.23200000463
0.232000001497
0.232000012732
0.232000013122
0.232000009534
0.232000006298
0.232000005067
0.232000003685
0.232000003119
0.232000002398
0.232000001696
0.227458246177
0.231137851906
0.231888648647
0.231976672872
0.231995677338
0.231999148731
0.231999779699
0.231999932998
0.231999947548
0.231999990005
0.231999992487
0.23200000923
0.232000010778
0.232000010058
0.232000006573
0.232000005113
0.232000004746
0.232000004339
0.23200000378
0.232000003012
0.0358449984935
0.21689392612
0.229638592004
0.231597671575
0.231963762975
0.231994844459
0.231999154122
0.231999827782
0.23199992254
0.231999972532
0.231999985267
0.232000004189
0.23200000957
0.232000008378
0.232000005577
0.232000004739
0.232000004569
0.232000004637
0.232000004435
0.232000004323
0
0.184659121722
0.225120448587
0.230609998714
0.2318609273
0.231980324886
0.231997137942
0.231999541078
0.23199988104
0.231999959354
0.231999978032
0.231999998487
0.232000004501
0.232000006567
0.232000004809
0.232000004294
0.232000005086
0.23200000538
0.232000005382
0.232000005589
0
0.116412130154
0.217209558931
0.229075818041
0.231515001728
0.231949862696
0.231992433896
0.231998855356
0.231999790007
0.231999940795
0.231999972954
0.231999993719
0.232000002867
0.232000004129
0.232000003533
0.232000003832
0.2320000047
0.232000005462
0.232000005719
0.232000006126
0
0.0125130249791
0.209346288137
0.22731042406
0.231035392133
0.231893854345
0.231983304352
0.231997405176
0.23199958698
0.231999915033
0.231999967872
0.231999990718
0.231999998835
0.232000002805
0.232000003062
0.232000003564
0.232000005006
0.232000005877
0.23200000614
0.23200000652
0
0
0.19719061904
0.225212702772
0.230492161613
0.231756033395
0.231969312288
0.231994862172
0.231999183731
0.231999859422
0.231999961387
0.231999987735
0.231999998977
0.232000001465
0.232000002305
0.232000003234
0.232000004539
0.232000005672
0.232000006073
0.232000006576
0
0
0.176826649216
0.222361348747
0.229783622318
0.231564726362
0.231945573312
0.231990480232
0.231998435119
0.231999751474
0.231999948357
0.231999986403
0.231999996659
0.232000001236
0.232000002069
0.232000002844
0.232000004409
0.232000005479
0.232000005808
0.232000006221
0
0
0.145008471173
0.218512029972
0.228866996185
0.231305646529
0.231909391297
0.231983412781
0.231997135404
0.231999546327
0.23199992112
0.231999982121
0.23199999765
0.232000000738
0.232000001446
0.232000002278
0.232000003555
0.232000004793
0.232000005327
0.232000005931
0
0
0.09983455511
0.213516640583
0.227710615173
0.230965441743
0.231857049439
0.231972646025
0.231995026244
0.23199918336
0.23199986986
0.231999977308
0.231999996076
0.232000000892
0.232000001049
0.232000001382
0.232000002681
0.232000003815
0.232000004384
0.232000004715
0
0
0.0457978070849
0.206667655041
0.226273074669
0.230585607967
0.231743933783
0.231958868331
0.231991917002
0.231998593113
0.231999778086
0.231999965285
0.231999996316
0.232000000939
0.232000000487
0.232000000413
0.232000001432
0.232000002659
0.232000003518
0.232000004095
0
0
0.0114219012587
0.195339136455
0.224448170198
0.230112843619
0.231600886126
0.231937819932
0.231987289168
0.231997659987
0.231999622801
0.231999945359
0.231999994398
0.232000001126
0.231999999895
0.231999999115
0.231999999871
0.232000000966
0.232000001846
0.232000001762
0
0
0.00593122212326
0.178021401976
0.222126759289
0.229526513895
0.231419997697
0.23190811603
0.231980528037
0.231996234563
0.231999367236
0.231999908374
0.231999990681
0.232000001204
0.231999999416
0.231999997933
0.231999998344
0.231999999417
0.232000000737
0.232000000693
0
0
0
0.151624012833
0.219045428429
0.228779270599
0.231187489604
0.231866888513
0.231970881215
0.231994104841
0.23199896158
0.231999844364
0.231999983659
0.232000000281
0.231999998519
0.231999996394
0.231999996276
0.231999997229
0.231999998636
0.231999997295
0
0
0
0.11397649656
0.214872992851
0.227806718211
0.230919506425
0.23178164794
0.231958922784
0.231991113848
0.231998343156
0.2319997403
0.231999967314
0.231999998297
0.231999997356
0.231999994632
0.23199999431
0.231999995548
0.231999997183
0.231999995938
0
0
0
0.0664758242591
0.208451676499
0.226492453449
0.230564418194
0.231671286817
0.231940823397
0.231986791212
0.231997414763
0.231999569311
0.231999942337
0.23199999306
0.231999994954
0.231999992403
0.231999991803
0.231999993094
0.231999994721
0.231999991315
0
0
0
0.0157173758717
0.196810149936
0.224674964684
0.230099893839
0.231528646227
0.231915312359
0.231980601473
0.231996033082
0.231999310193
0.231999895274
0.231999984227
0.231999991166
0.231999989075
0.231999989183
0.231999990704
0.231999992492
0.23199998908
0
0
0
0.00697656124472
0.178465675198
0.2222364156
0.229498316455
0.231344294724
0.231880256293
0.231971903472
0.231994030472
0.231998906342
0.231999826208
0.23199996875
0.231999984853
0.231999985403
0.231999985757
0.231999987752
0.231999989434
0.231999983428
0
0
0
0.00325959176714
0.150481096121
0.218684313763
0.22867865149
0.23112548166
0.231809879419
0.231961229303
0.231991261816
0.231998318665
0.231999714791
0.231999945331
0.231999976159
0.231999979591
0.231999981428
0.231999984097
0.231999985525
0.231999980288
0
0
0
0
0.11125520501
0.213101751298
0.227498955464
0.230820344875
0.23171709829
0.231945148644
0.231987308103
0.231997448713
0.231999551416
0.23199991227
0.231999965035
0.231999973412
0.231999976576
0.231999979639
0.231999981409
0.231999973395
0
0
0
0
0.0633121012582
0.203969064835
0.225748301659
0.230387205519
0.231591551142
0.231922204104
0.231981649332
0.231996186097
0.231999306602
0.231999866891
0.231999952332
0.231999965475
0.23199997023
0.23199997378
0.231999974869
0.231999967695
0
0
0
0
0.0128814151471
0.189899509442
0.22321910693
0.229781881511
0.231420861466
0.231890565374
0.2319736961
0.231994351947
0.231998945781
0.231999803021
0.231999935791
0.231999957279
0.23199996308
0.231999967302
0.23199996892
0.231999959342
0
0
0
0
0.00526108383878
0.170047663156
0.219731765338
0.228968538254
0.231192755483
0.231847713978
0.231962759615
0.231991747557
0.231998417069
0.231999707761
0.231999917559
0.231999948086
0.231999955165
0.23199995953
0.231999959953
0.231999951498
0
0
0
0
0.00398476467429
0.144063426819
0.214895824194
0.227886925382
0.2309242894
0.231762421091
0.231949746399
0.23198826056
0.231997651595
0.231999572942
0.231999892832
0.231999938516
0.231999947065
0.231999951089
0.231999952423
0.231999942788
0
0
0
0
0.00303717586236
0.113649958564
0.208084263516
0.226425117604
0.230562853442
0.231653470838
0.23193071038
0.231983415086
0.231996563314
0.231999373194
0.231999859127
0.23199993001
0.231999939627
0.231999942681
0.231999942827
0.231999933194
0
0
0
0
0.00221036363286
0.0819100710246
0.198708588799
0.224444033751
0.230075017584
0.231511076116
0.231904322699
0.2319766827
0.231995012747
0.231999074021
0.231999814746
0.231999920753
0.231999932906
0.231999934425
0.231999934549
0.231999924945
0
0
0
0
0.00148561113098
0.051573151499
0.186339184829
0.221781093965
0.229420212933
0.231323063912
0.231868416148
0.231967447758
0.231992808965
0.231998640183
0.23199974664
0.231999910738
0.231999928281
0.231999928179
0.231999926943
0.231999916264
0
0
0
0
0.000751920130196
0.0241892455096
0.170818566037
0.21824812094
0.228555393283
0.231102569412
0.23179812126
0.23195640423
0.23198985556
0.231998016126
0.231999643417
0.231999899845
0.231999925407
0.231999923186
0.231999920065
0.231999909921
0
0
0
0
0.000261331636065
0.00783712211657
0.15297815368
0.213795127802
0.227461102055
0.230817985091
0.231710572167
0.231940454152
0.231985799246
0.231997119393
0.231999491808
0.231999881665
0.231999924077
0.231999921344
0.231999917724
0.23199990431
0
0
0
0
0.000230585528547
0.00597916977082
0.132648142158
0.208253654751
0.226109312639
0.230458367449
0.23160109189
0.231918889336
0.231980239207
0.231995850981
0.231999263539
0.231999853968
0.231999926633
0.231999922736
0.231999916197
0.231999902172
0
0
0
5.24200931865e-06
0.000246299206167
0.0053200043105
0.111261131125
0.201070973148
0.224387992819
0.229997660046
0.231461800711
0.231890528177
0.231972714332
0.231994074664
0.23199892488
0.231999813403
0.231999927286
0.231999929606
0.231999924051
0.231999907222
1.09079486301e-08
5.20925696068e-08
5.84186298108e-07
1.1758922533e-05
0.000245850380952
0.00465173747091
0.0903802156323
0.191662031118
0.22213034845
0.229397467123
0.231281698166
0.231853377791
0.231962680774
0.231991610653
0.231998435595
0.231999744596
0.231999933406
0.231999943453
0.231999930324
0.231999916227
2.31187859211e-08
1.43132955259e-07
1.20431748595e-06
1.43459380923e-05
0.000230730524248
0.003933145545
0.0710078441828
0.179677116508
0.219140775735
0.228613059958
0.231072880233
0.231783091519
0.231951003222
0.231988381329
0.231997741873
0.23199964349
0.231999936789
0.231999955083
0.231999949148
0.231999935359
3.17426849845e-08
1.92579923666e-07
1.46966869957e-06
1.46830619345e-05
0.000205056075864
0.00318976314456
0.0536584291774
0.165159068541
0.215170327415
0.227590919206
0.230799960169
0.231696367461
0.231934543689
0.231984052625
0.231996773844
0.231999487263
0.231999930448
0.231999977803
0.231999964645
0.231999949065
3.89373070891e-08
2.23589937695e-07
1.57858942375e-06
1.41257011021e-05
0.000171316078029
0.00244422459167
0.0383079670232
0.148929624018
0.209919725423
0.226267072878
0.230448158165
0.231588773536
0.231912739329
0.231978295223
0.231995441461
0.231999253622
0.231999919954
0.23199999671
0.231999984166
0.231999981601
4.30747158514e-08
2.31242918413e-07
1.50669063288e-06
1.22069829794e-05
0.000130555631686
0.00170600067201
0.024733826244
0.132347939268
0.203126234312
0.224563178126
0.229999626805
0.231455121895
0.23188489734
0.231970786186
0.231993638525
0.231998918857
0.2319998907
0.232000016712
0.232000012426
0.23199999746
4.11126873733e-08
2.0502361503e-07
1.22507102414e-06
8.95392738793e-06
8.43200401739e-05
0.000995266513893
0.0130480401368
0.116524548795
0.194772432351
0.222394281931
0.229431670446
0.231288829794
0.231849852225
0.231961178046
0.231991244982
0.231998447512
0.231999841787
0.232000038955
0.232000030599
0.232000047016
3.66934238983e-08
1.72131516156e-07
9.59451019459e-07
6.47471514194e-06
5.53643601473e-05
0.000610168311354
0.00756710787318
0.102384564978
0.184781059098
0.219620058797
0.228711420821
0.231101562006
0.231787690938
0.231950426181
0.231988231593
0.231997809003
0.231999762497
0.232000057527
0.232000070371
0.232000079307
3.72035773255e-08
1.70012132309e-07
9.21415486448e-07
6.02217650261e-06
4.93165492203e-05
0.000532170711359
0.00655979107222
0.0900858916902
0.173314455863
0.21601153616
0.227788345557
0.23086330113
0.231713571502
0.231935940418
0.231984366317
0.231996953361
0.231999646606
0.232000081888
0.232000099339
0.232000166018
4.38977733608e-08
1.96123358313e-07
1.0324219784e-06
6.48908143672e-06
5.02595750968e-05
0.000514529832902
0.00603353342751
0.0790538620151
0.161275437586
0.211336956046
0.226596918249
0.230560021004
0.231624097961
0.231917393063
0.231979430855
0.231995824437
0.231999476723
0.232000098689
0.232000154997
0.232000239559
5.57188980588e-08
2.41663429353e-07
1.22556746441e-06
7.35009672334e-06
5.35666264148e-05
0.000503960010032
0.00556822453611
0.0691316164118
0.149492127397
0.205446077569
0.225055893645
0.230174071418
0.23151525277
0.231894349036
0.23197321485
0.231994352301
0.23199923882
0.232000118078
0.232000203383
0.232000377047
7.110420876e-08
2.98042546855e-07
1.45049557447e-06
8.27980818217e-06
5.67727920992e-05
0.00049296824785
0.00513243979086
0.0603632826753
0.138517475978
0.198401130291
0.22306426933
0.229681528333
0.231383888467
0.231864689049
0.231965363985
0.231992453287
0.231998908621
0.232000123526
0.232000273206
0.232000518185
8.93936693974e-08
3.62133021754e-07
1.69331979849e-06
9.22480089089e-06
5.97872781536e-05
0.000482513335564
0.00474292502151
0.0529046429835
0.128891106511
0.190337402897
0.220489779317
0.229049434965
0.231233437441
0.231817858585
0.231956800842
0.231990121222
0.231998466865
0.2320001193
0.232000348532
0.232000711205
1.10915192485e-07
4.34799873153e-07
1.95804029373e-06
1.02151346533e-05
6.28738796324e-05
0.000474669983877
0.00441581306763
0.0468012457029
0.120501081742
0.181828231442
0.217212949433
0.22823593243
0.231044442632
0.231763755547
0.231945776749
0.231987228649
0.231997886148
0.232000095215
0.232000424327
0.2320009371
1.37038566123e-07
5.20354358866e-07
2.26126791502e-06
1.13293448747e-05
6.64750753109e-05
0.000472090543426
0.00416693534745
0.0420427874937
0.113199583253
0.173514505177
0.213182573787
0.227188087275
0.230806208119
0.231700305823
0.2319321768
0.231983659005
0.231997132
0.232000035412
0.232000530262
0.232001170104
1.70643439966e-07
6.27717639462e-07
2.63536559277e-06
1.27044523169e-05
7.12602093437e-05
0.00047810087408
0.0040134995435
0.0386171722653
0.106994095239
0.165881438105
0.208439084149
0.225839380697
0.230502981711
0.231624854714
0.231915802299
0.231979306272
0.231996172018
0.231999952714
0.232000596137
0.232001479917
2.18167390909e-07
7.77455705166e-07
3.15681209658e-06
1.467132566e-05
7.88596809617e-05
0.000502037894114
0.00397243065976
0.0365078650489
0.101991770079
0.159399778697
0.202996641798
0.224107285973
0.230113257629
0.231534016703
0.231896359748
0.231974069075
0.231994960069
0.231999790299
0.232000730199
0.232001717377
2.90405363169e-07
1.0005595036e-06
3.92550971835e-06
1.75817540733e-05
9.05506034652e-05
0.000547802418302
0.00405812091547
0.0356699482047
0.0981920304475
0.153887043693
0.197288967092
0.221932667121
0.229609821361
0.231425804543
0.231871607739
0.231967710593
0.231993456961
0.231999608117
0.232000763993
0.232002091366
4.04251889355e-07
1.34126121831e-06
5.06934780564e-06
2.18231878364e-05
0.000107512468498
0.00061759063998
0.00428699219801
0.0360656873127
0.0955742790836
0.149251996275
0.191745922715
0.219307636774
0.228955510175
0.23129619189
0.231838669595
0.231959860471
0.231991581445
0.231999281498
0.232000916123
0.232002283282
5.91767270976e-07
1.88272994557e-06
6.83335827069e-06
2.81958813829e-05
0.000132681692211
0.000723348761988
0.00470964891607
0.0378225529958
0.0941319003326
0.145525901468
0.18690033606
0.216134559424
0.228096499236
0.23112964977
0.231798927547
0.231951625927
0.231989368476
0.231998947836
0.232000891608
0.232002684155
9.30225802551e-07
2.82809946448e-06
9.83131385025e-06
3.88260421138e-05
0.000174427419212
0.000903065384984
0.00552608730796
0.0407499053976
0.093807606722
0.14271827486
0.182833842985
0.212536632832
0.226984738711
0.230913399272
0.231752585158
0.231941701001
0.23198673292
0.231998392225
0.232001043175
0.232002771774
1.55129831534e-06
4.47565128882e-06
1.48082422364e-05
5.56303485325e-05
0.000237153697668
0.00115910136978
0.00662814013106
0.0446482212281
0.0945424363188
0.140813340688
0.179449234921
0.208791425604
0.225597360876
0.230629967823
0.23169746867
0.231929972028
0.231983652223
0.231997856782
0.232000931399
0.232003145914
2.76736258243e-06
7.51561130004e-06
2.35093788089e-05
8.347304469e-05
0.000335557668879
0.00153859493478
0.00816205455162
0.0496275393955
0.0964552645404
0.139901810163
0.176773843982
0.205334531108
0.223848858966
0.230251952758
0.231630386261
0.231916219722
0.231980048325
0.231997013335
0.23200105302
0.232003056777
7.10206412374e-06
1.83610872903e-05
5.5190042316e-05
0.000189029152709
0.000734276780877
0.00324784966108
0.0164130285258
0.0562494589386
0.0995238186135
0.139963996135
0.174831975232
0.202425040586
0.221724742543
0.229747260573
0.23154706002
0.231900147086
0.231975935961
0.231996234589
0.232000830345
0.232003320938
1.87208383631e-05
4.49494251596e-05
0.00012599487986
0.000401662338909
0.00144643814651
0.00588008733327
0.0267543948634
0.0639621417926
0.103542896933
0.140880750208
0.173584078085
0.200040880926
0.219369610242
0.229090802445
0.231441827006
0.231880502805
0.231971185899
0.231995078246
0.232000873271
0.232002989583
5.15554272418e-05
0.000112351594042
0.000289254500001
0.00084702395087
0.00279284140396
0.0103034628486
0.0379312553366
0.0726012256563
0.108500470471
0.142654020124
0.173045882802
0.198175081327
0.217108601975
0.228173285871
0.231300754494
0.231856298652
0.231965765304
0.231994020704
0.232000503174
0.232003035852
0.000169990770682
0.000344755430799
0.000832211072895
0.0022863291888
0.00704295262605
0.0239459442949
0.05102503188
0.0822212013846
0.114346836582
0.145252133308
0.173209659237
0.196824276293
0.21510619556
0.226991947835
0.231105249341
0.231827188783
0.231959643974
0.231992483835
0.232000383998
0.232002404629
0.000707594686146
0.00130132015764
0.00287256448867
0.00721244301982
0.0201577325005
0.0401639442391
0.0649859137784
0.0924956153712
0.120891941641
0.148559149301
0.174014357887
0.195970656879
0.213431478662
0.225647975973
0.230802169294
0.231788225254
0.231952222696
0.231990962457
0.231999847074
0.232002102853
0.00443437024929
0.00756749979834
0.0141239219503
0.0243601452471
0.0388689874079
0.0573768006117
0.0791004166292
0.102983506251
0.127830526857
0.152372733602
0.175340052514
0.195563326778
0.212081715081
0.224241371266
0.230363167392
0.231730209659
0.231942733075
0.231988882966
0.231999471834
0.232001230373
0.0235319041726
0.0277599438903
0.0347180687076
0.0446585227453
0.0577270179778
0.0738000160806
0.0924637450314
0.113047755771
0.134677918781
0.156338063804
0.176948562527
0.195464936047
0.210983557776
0.222851279218
0.229763735128
0.231641099371
0.23192991806
0.231986551291
0.231998735897
0.232000591973
0.0442487518677
0.048418614632
0.0548043049882
0.0636023784616
0.0749191561435
0.0886994884536
0.104686860922
0.12241418859
0.141221054592
0.160293278655
0.178725240157
0.195601973167
0.210091523225
0.221536026991
0.228997405824
0.231502306545
0.231911476654
0.231983375329
0.231998062314
0.231999739281
0.0619883829308
0.0658719626646
0.0715411376495
0.0791806413407
0.0889040731938
0.100709365416
0.114443720606
0.129783989753
0.146236008486
0.163154475719
0.179784885748
0.195325149151
0.20900021273
0.220141035919
0.228027149669
0.231279460419
0.231882894005
0.231979157215
0.231997141796
0.231998953011
0.232000076215
0.232000075118
0.232000055837
0.232000069082
0.232000043558
0.232000063658
0.232000036551
0.232000051065
0.232000029646
0.232000036471
0.232000023986
0.232000023504
0.23200001949
0.232000011716
0.232000015556
0.232000000346
0.232000011772
0.231999989286
0.232000007319
0.231999977976
0.232000002394
0.231999967402
0.231999998264
0.231999956766
0.231999993839
0.23199994672
0.231999988905
0.231999935479
0.231999980242
0.231999925901
0.231999976343
0.231999915909
0.231999968828
0.231999907505
0.231999964354
0.231999896261
0.231999943627
0.231999886225
0.231999932157
0.231999873874
0.231999904444
0.231999862678
0.231999889615
0.231999849263
0.231999852727
0.231999836401
0.231999829358
0.23199982444
0.231999800003
0.231999813352
0.231999768162
0.231999804749
0.231999749837
0.231999797685
0.231999712679
0.231999799681
0.231999771249
0.231999815447
0.231999786805
0.2319998477
0.231999933493
0.231999898976
0.231999943796
0.231999956157
0.232000114991
0.232000029425
0.232000128866
0.232000109589
0.232000416025
0.232000224359
0.232000510736
0.232000370632
0.232001091646
0.232000609368
0.232001396589
0.232000914044
0.232002255523
0.232001357904
0.232002854946
0.232001887733
0.232003851339
0.232002545668
0.232004774115
0.232003288606
0.232005625105
0.232004069769
0.232006840216
0.232004937705
0.232007197093
0.232005678447
0.232008636802
0.232006536393
0.232008173865
0.232007039709
0.232009751709
0.232007737719
0.232008242423
0.232007814723
0.232009865512
0.232008213497
0.232007123888
0.232007681173
0.232008593951
0.232007620595
0.232004712335
0.2320063584
0.232005727645
0.232005681172
0.23200099312
0.232003641499
0.232001128362
0.232002222644
0.23199683729
0.23199979853
0.231996323282
0.231998035342
0.231994350188
0.231996251137
0.231993662857
0.231995007506
)
;

boundaryField
{
    inletfuel
    {
        type            fixedValue;
        value           uniform 0;
    }
    inletair
    {
        type            fixedValue;
        value           uniform 0.232;
    }
    outlet
    {
        type            zeroGradient;
    }
    axis
    {
        type            empty;
    }
    leftside
    {
        type            zeroGradient;
    }
    burnerwall
    {
        type            zeroGradient;
    }
    front
    {
        type            wedge;
    }
    back
    {
        type            wedge;
    }
}


// ************************************************************************* //
