/*--------------------------------*- C++ -*----------------------------------*\
| =========                 |                                                 |
| \\      /  F ield         | OpenFOAM: The Open Source CFD Toolbox           |
|  \\    /   O peration     | Version:  2.4.x                                 |
|   \\  /    A nd           | Web:      www.OpenFOAM.org                      |
|    \\/     M anipulation  |                                                 |
\*---------------------------------------------------------------------------*/
FoamFile
{
    version     2.0;
    format      ascii;
    class       volScalarField;
    location    "1000";
    object      p;
}
// * * * * * * * * * * * * * * * * * * * * * * * * * * * * * * * * * * * * * //

dimensions      [1 -1 -2 0 0 0 0];

internalField   nonuniform List<scalar> 
1629
(
101352.871264
101352.135093
101362.924933
101372.162649
101364.647118
101366.931564
101349.329109
101348.041307
101351.44659
101332.200237
101330.650007
101331.134438
101332.955168
101332.261215
101332.635072
101332.275221
101331.938425
101331.713074
101331.880337
101331.744312
101331.483199
101331.854756
101331.779841
101331.543181
101331.868341
101331.809552
101331.616675
101331.849145
101331.788029
101331.631218
101331.830352
101331.76515
101331.628189
101331.797168
101331.7213
101331.601696
101331.746573
101331.640229
101331.564738
101331.687579
101331.580673
101331.544492
101331.642918
101331.558491
101331.528506
101331.609082
101331.523948
101331.49486
101331.548897
101331.463828
101331.443515
101331.472576
101331.397532
101331.38441
101331.418927
101331.356595
101331.343521
101331.376524
101331.325891
101331.31194
101331.303322
101331.265135
101331.253543
101331.201097
101331.174697
101331.166981
101331.083745
101331.066474
101331.062122
101330.973733
101330.962523
101330.960572
101330.889868
101330.882055
101330.88174
101330.81903
101330.812682
101330.813291
101330.742551
101330.736573
101330.737543
101330.658911
101330.652918
101330.653951
101330.568848
101330.562874
101330.56383
101330.471906
101330.466116
101330.466926
101330.378703
101330.373306
101330.374036
101330.293421
101330.288587
101330.28931
101330.201638
101330.197402
101330.198088
101330.101338
101330.097623
101330.098244
101329.995375
101329.992097
101329.992663
101329.885109
101329.882201
101329.882724
101329.772207
101329.769631
101329.770122
101329.656313
101329.654073
101329.65453
101329.539103
101329.537194
101329.537617
101329.419981
101329.418364
101329.418747
101329.29484
101329.29347
101329.293804
101329.164311
101329.163155
101329.163438
101329.02908
101329.028115
101329.028351
101328.889323
101328.888525
101328.88872
101328.744721
101328.744068
101328.744225
101328.595356
101328.59483
101328.594952
101328.441178
101328.44076
101328.440854
101328.281651
101328.281327
101328.281395
101328.116444
101328.116198
101328.116245
101327.945709
101327.945531
101327.945562
101327.768886
101327.768764
101327.768782
101327.585023
101327.584944
101327.584952
101327.395042
101327.394986
101327.39499
101327.194954
101327.194915
101327.194916
101326.990578
101326.990553
101326.990559
101326.783195
101326.783171
101326.783185
101326.563457
101326.563418
101326.563436
101326.335841
101326.335774
101326.335781
101326.10039
101326.100321
101326.100173
101325.851331
101325.852155
101325.851826
101325.619066
101325.620925
101325.620481
101325.376909
101325.379085
101325.378545
101325.212541
101325.213572
101325.213096
101327.474257
101332.72368
101331.828965
101331.562541
101331.557114
101331.612004
101331.610879
101331.587976
101331.551002
101331.514229
101331.498696
101331.488117
101331.459949
101331.412725
101331.35438
101331.312708
101331.282531
101331.228468
101331.147562
101331.047999
101330.950847
101330.875481
101330.809359
101330.734883
101330.65191
101330.56208
101330.465314
101330.372627
101330.288203
101330.197241
101330.097581
101329.992147
101329.882333
101329.769834
101329.654328
101329.537495
101329.418687
101329.293777
101329.163425
101329.028349
101328.888723
101328.74423
101328.594957
101328.440856
101328.281394
101328.116241
101327.945555
101327.768772
101327.584941
101327.394975
101327.194894
101326.990538
101326.783167
101326.563411
101326.335729
101326.099976
101325.851745
101325.620583
101325.378664
101325.212895
101332.490263
101332.332245
101332.298663
101332.22371
101332.159386
101332.098146
101332.043028
101331.993863
101331.95064
101331.912706
101331.879137
101331.849207
101331.821043
101331.795184
101331.765967
101331.740831
101331.697214
101331.675455
101331.581357
101331.627015
101332.604065
101332.426211
101332.329075
101332.198354
101332.106893
101332.029297
101331.967535
101331.916029
101331.87305
101331.836469
101331.804488
101331.776483
101331.749363
101331.725959
101331.696054
101331.675893
101331.626418
101331.615819
101331.505633
101331.525707
101333.348273
101332.794183
101332.49005
101332.232973
101332.086324
101331.984211
101331.91729
101331.866606
101331.82676
101331.793615
101331.764613
101331.739591
101331.714184
101331.693955
101331.66405
101331.649193
101331.595639
101331.593088
101331.461629
101331.468337
101332.833267
101332.450164
101332.238583
101332.104863
101332.009163
101331.926297
101331.869624
101331.826525
101331.792232
101331.76316
101331.737203
101331.714781
101331.691164
101331.673182
101331.644349
101331.632364
101331.578796
101331.578937
101331.424266
101331.395895
101331.489425
101331.891858
101331.912448
101331.893199
101331.881485
101331.844956
101331.811104
101331.780633
101331.754318
101331.730282
101331.707688
101331.687896
101331.666103
101331.650253
101331.622751
101331.613566
101331.561469
101331.566932
101331.408255
101331.413265
101331.380229
101331.654768
101331.706322
101331.726381
101331.762345
101331.760242
101331.748252
101331.730648
101331.712982
101331.694738
101331.676087
101331.659365
101331.639767
101331.626404
101331.600715
101331.594993
101331.546152
101331.560125
101331.420469
101331.47784
101331.267222
101331.40461
101331.560192
101331.610066
101331.667539
101331.685261
101331.688619
101331.681181
101331.670874
101331.658084
101331.643405
101331.629902
101331.612742
101331.60209
101331.578689
101331.576801
101331.533008
101331.556249
101331.447427
101331.548982
101331.309581
101331.37751
101331.556605
101331.567671
101331.611818
101331.62911
101331.637368
101331.635166
101331.629732
101331.621259
101331.610098
101331.599661
101331.584993
101331.577106
101331.556335
101331.558308
101331.520716
101331.55213
101331.475826
101331.602838
101331.403363
101331.460937
101331.556721
101331.554146
101331.575519
101331.585753
101331.59328
101331.592787
101331.590052
101331.584661
101331.576387
101331.568703
101331.556453
101331.551254
101331.533298
101331.538881
101331.507867
101331.545263
101331.496569
101331.626943
101331.411485
101331.462217
101331.505155
101331.52508
101331.53457
101331.544287
101331.551665
101331.552444
101331.551454
101331.548313
101331.542358
101331.53705
101331.527052
101331.524345
101331.509225
101331.517931
101331.493247
101331.534126
101331.506333
101331.627631
101331.389997
101331.431279
101331.449944
101331.492204
101331.491791
101331.503766
101331.511253
101331.51338
101331.513606
101331.51212
101331.507977
101331.504645
101331.49666
101331.496145
101331.48373
101331.49492
101331.475905
101331.517983
101331.504894
101331.611651
101331.362252
101331.384118
101331.388846
101331.462241
101331.450357
101331.465419
101331.472325
101331.475547
101331.476383
101331.475983
101331.473148
101331.471366
101331.4651
101331.466402
101331.456436
101331.469398
101331.45517
101331.49657
101331.493036
101331.583301
101331.350335
101331.338389
101331.334738
101331.427638
101331.411891
101331.429823
101331.435171
101331.438932
101331.439652
101331.439749
101331.437709
101331.437036
101331.432157
101331.434857
101331.427003
101331.441024
101331.430629
101331.469944
101331.472045
101331.546125
101331.367037
101331.327252
101331.325453
101331.394789
101331.38727
101331.399888
101331.401288
101331.403771
101331.403304
101331.4032
101331.401429
101331.401427
101331.39759
101331.401261
101331.39514
101331.409563
101331.402086
101331.438372
101331.443359
101331.502826
101331.381053
101331.330396
101331.332679
101331.366925
101331.372786
101331.372668
101331.369427
101331.36908
101331.366706
101331.365854
101331.363945
101331.364242
101331.361134
101331.365376
101331.360606
101331.374867
101331.3695
101331.402215
101331.408286
101331.455196
101331.366669
101331.30974
101331.314025
101331.329836
101331.35168
101331.340664
101331.335095
101331.332323
101331.328506
101331.326895
101331.324741
101331.32512
101331.322504
101331.326978
101331.323212
101331.336862
101331.332936
101331.361856
101331.367903
101331.404375
101331.325812
101331.268802
101331.264828
101331.280739
101331.31502
101331.299404
101331.29474
101331.291451
101331.28748
101331.285545
101331.283308
101331.283697
101331.281426
101331.285871
101331.282814
101331.295524
101331.292516
101331.317653
101331.323059
101331.351057
101331.269091
101331.2178
101331.187235
101331.20068
101331.255936
101331.24607
101331.247026
101331.245759
101331.243087
101331.24139
101331.239306
101331.23969
101331.237667
101331.241892
101331.23931
101331.250864
101331.248386
101331.26992
101331.274389
101331.295634
101331.230411
101331.186868
101331.137706
101331.138494
101331.196418
101331.19679
101331.199721
101331.198658
101331.196633
101331.194799
101331.192716
101331.192954
101331.191065
101331.19492
101331.19263
101331.202913
101331.200698
101331.21891
101331.222347
101331.238294
101331.209799
101331.174078
101331.126805
101331.12155
101331.154561
101331.161648
101331.157713
101331.152859
101331.149216
101331.146142
101331.143546
101331.143378
101331.141483
101331.144856
101331.142729
101331.151709
101331.149587
101331.164821
101331.167246
101331.179121
101331.171048
101331.141815
101331.102327
101331.087504
101331.10551
101331.120229
101331.111304
101331.103697
101331.098515
101331.094324
101331.091215
101331.090638
101331.088723
101331.091595
101331.089566
101331.097286
101331.095166
101331.10779
101331.109294
101331.118086
101331.107066
101331.084095
101331.05264
101331.030426
101331.04295
101331.060157
101331.05365
101331.046505
101331.041849
101331.037888
101331.034935
101331.034318
101331.032559
101331.035028
101331.033107
101331.039669
101331.037525
101331.047907
101331.048633
101331.05506
101331.022134
101331.003804
101330.977601
101330.953459
101330.959326
101330.981376
101330.983282
101330.98015
101330.978533
101330.976404
101330.974445
101330.974257
101330.972888
101330.9751
101330.973336
101330.978879
101330.976728
101330.985216
101330.985344
101330.98994
101330.935933
101330.921255
101330.89964
101330.877466
101330.868751
101330.900641
101330.907831
101330.9093
101330.910972
101330.91106
101330.910315
101330.910702
101330.909806
101330.91185
101330.910276
101330.91494
101330.912816
101330.919725
101330.919429
101330.922629
101330.867818
101330.856858
101330.840979
101330.825722
101330.808069
101330.835403
101330.841261
101330.842482
101330.843902
101330.844278
101330.843753
101330.844218
101330.843558
101330.84538
101330.843969
101330.84787
101330.84581
101330.851414
101330.850839
101330.852984
101330.805396
101330.797
101330.785456
101330.775661
101330.760982
101330.773987
101330.77961
101330.778237
101330.777196
101330.77626
101330.774997
101330.774963
101330.774233
101330.77573
101330.774432
101330.777668
101330.775704
101330.780238
101330.7795
101330.780856
101330.731991
101330.724742
101330.715593
101330.707864
101330.697361
101330.703473
101330.710301
101330.708588
101330.706123
101330.704449
101330.702731
101330.702297
101330.701532
101330.702761
101330.701597
101330.704288
101330.702462
101330.706134
101330.705325
101330.706098
101330.648904
101330.642298
101330.634686
101330.628002
101330.61998
101330.624715
101330.630973
101330.630917
101330.62824
101330.627128
101330.625877
101330.625587
101330.6251
101330.62628
101330.625362
101330.627659
101330.626027
101330.629021
101330.628216
101330.628567
101330.558775
101330.552701
101330.546062
101330.540079
101330.532837
101330.537787
101330.542646
101330.54508
101330.543431
101330.544236
101330.544315
101330.544755
101330.544868
101330.546231
101330.545676
101330.547727
101330.546343
101330.548816
101330.548073
101330.548128
101330.461901
101330.45614
101330.449765
101330.443646
101330.435486
101330.435328
101330.445456
101330.452529
101330.453583
101330.457076
101330.458822
101330.460283
101330.461092
101330.46273
101330.462574
101330.464473
101330.46336
101330.465438
101330.464792
101330.46465
101330.369574
101330.364618
101330.359084
101330.353617
101330.346505
101330.340289
101330.354088
101330.364007
101330.365677
101330.369584
101330.371612
101330.373335
101330.374361
101330.376052
101330.37616
101330.377905
101330.377039
101330.378804
101330.378274
101330.378006
101330.285837
101330.282184
101330.278225
101330.27436
101330.270211
101330.264714
101330.273297
101330.281431
101330.28115
101330.282634
101330.283345
101330.284299
101330.284889
101330.286288
101330.28645
101330.287987
101330.287316
101330.288822
101330.288411
101330.288072
101330.195501
101330.192747
101330.18977
101330.186718
101330.183872
101330.180014
101330.186051
101330.191872
101330.192015
101330.191364
101330.19134
101330.191699
101330.191903
101330.193016
101330.193204
101330.194561
101330.194068
101330.195377
101330.195087
101330.194722
101330.096236
101330.093991
101330.091514
101330.088817
101330.086308
101330.082647
101330.089399
101330.09187
101330.095178
101330.093327
101330.093832
101330.094298
101330.094631
101330.095747
101330.096117
101330.097418
101330.097145
101330.098334
101330.098178
101330.097828
101329.99106
101329.989179
101329.987047
101329.984617
101329.982308
101329.978313
101329.986256
101329.984843
101329.991851
101329.989494
101329.991114
101329.992124
101329.99299
101329.994345
101329.995052
101329.996426
101329.996424
101329.99757
101329.997564
101329.997264
101329.88144
101329.879873
101329.878049
101329.875889
101329.87379
101329.869699
101329.877741
101329.874576
101329.883231
101329.881619
101329.884137
101329.88582
101329.887308
101329.888961
101329.890045
101329.89155
101329.891835
101329.89299
101329.893134
101329.892909
101329.7691
101329.767827
101329.766314
101329.764455
101329.762578
101329.758868
101329.765198
101329.76354
101329.771129
101329.771533
101329.773975
101329.776147
101329.778012
101329.779837
101329.781199
101329.782806
101329.783339
101329.784519
101329.784787
101329.784667
101329.65377
101329.652778
101329.651546
101329.649957
101329.64824
101329.645062
101329.647223
101329.651053
101329.656777
101329.659828
101329.66105
101329.663427
101329.665278
101329.667078
101329.668547
101329.670176
101329.670882
101329.672079
101329.672434
101329.672449
101329.537125
101329.536446
101329.535565
101329.534366
101329.532999
101329.530702
101329.529319
101329.537428
101329.539806
101329.54542
101329.544878
101329.547264
101329.548837
101329.550511
101329.551952
101329.553544
101329.55436
101329.55557
101329.555988
101329.556151
101329.418456
101329.418047
101329.417515
101329.416747
101329.415818
101329.414453
101329.41246
101329.420542
101329.419033
101329.426327
101329.424602
101329.42686
101329.428188
101329.429773
101329.431156
101329.432713
101329.433613
101329.434847
101329.435326
101329.435634
101329.293617
101329.293346
101329.292996
101329.29246
101329.291751
101329.290774
101329.288804
101329.29634
101329.293595
101329.300817
101329.299544
101329.301489
101329.30289
101329.304499
101329.30589
101329.30746
101329.308455
101329.309735
101329.310286
101329.310725
101329.1633
101329.163104
101329.162853
101329.162447
101329.16187
101329.161058
101329.159239
101329.165844
101329.163744
101329.169168
101329.169921
101329.171127
101329.172881
101329.17454
101329.176001
101329.177619
101329.178721
101329.180065
101329.180696
101329.181248
101329.028256
101329.028125
101329.027962
101329.027676
101329.027237
101329.026566
101329.025035
101329.030415
101329.029781
101329.033043
101329.036185
101329.036201
101329.038315
101329.039918
101329.04144
101329.043082
101329.04428
101329.045684
101329.046392
101329.047032
101328.888658
101328.888577
101328.888486
101328.888302
101328.887991
101328.88744
101328.886244
101328.89033
101328.891215
101328.892526
101328.89749
101328.896549
101328.898937
101328.900462
101328.902055
101328.903699
101328.904981
101328.906432
101328.907211
101328.90791
101328.74418
101328.744129
101328.744079
101328.743958
101328.743728
101328.743264
101328.742337
101328.745189
101328.747136
101328.747088
101328.75285
101328.751933
101328.754374
101328.755953
101328.757639
101328.759292
101328.760655
101328.762144
101328.762986
101328.76372
101328.594916
101328.594881
101328.594856
101328.594775
101328.594601
101328.594214
101328.593504
101328.595264
101328.597745
101328.597432
101328.602983
101328.60285
101328.604777
101328.606467
101328.608142
101328.609772
101328.611177
101328.612678
101328.613564
101328.614304
101328.440821
101328.440794
101328.440784
101328.440734
101328.4406
101328.440286
101328.439767
101328.440576
101328.443205
101328.443351
101328.448061
101328.449091
101328.450027
101328.451881
101328.453419
101328.454999
101328.456398
101328.457881
101328.458788
101328.45951
101328.281357
101328.281326
101328.281312
101328.28127
101328.28114
101328.280863
101328.280477
101328.280376
101328.282894
101328.283861
101328.286991
101328.289569
101328.289567
101328.291725
101328.293137
101328.294716
101328.2961
101328.297565
101328.298484
101328.299176
101328.116198
101328.116154
101328.116124
101328.116067
101328.115924
101328.115654
101328.115348
101328.114336
101328.11667
101328.118384
101328.119979
101328.124009
101328.123441
101328.125826
101328.127142
101328.128745
101328.130106
101328.131554
101328.132479
101328.133132
101327.945508
101327.945453
101327.94541
101327.94534
101327.945197
101327.944941
101327.944719
101327.942781
101327.945115
101327.947378
101327.948099
101327.953536
101327.952345
101327.954446
101327.955563
101327.957068
101327.958332
101327.959724
101327.960627
101327.96123
101327.768718
101327.768646
101327.768581
101327.768487
101327.768326
101327.768056
101327.76783
101327.764989
101327.767462
101327.769959
101327.77056
101327.776316
101327.775129
101327.776722
101327.777848
101327.779269
101327.780478
101327.781829
101327.782724
101327.783278
101327.584879
101327.584788
101327.584697
101327.584579
101327.584392
101327.584095
101327.583777
101327.580181
101327.582605
101327.585022
101327.586092
101327.590479
101327.590733
101327.591826
101327.5934
101327.594878
101327.596198
101327.597591
101327.598546
101327.599073
101327.394891
101327.394771
101327.394643
101327.394482
101327.394246
101327.39389
101327.393236
101327.389064
101327.391207
101327.393459
101327.395257
101327.398026
101327.400934
101327.400787
101327.402819
101327.404186
101327.405606
101327.407
101327.408021
101327.408487
101327.1948
101327.194629
101327.194411
101327.194116
101327.193715
101327.192853
101327.189355
101327.18853
101327.191528
101327.194414
101327.197345
101327.199332
101327.204727
101327.203278
101327.205814
101327.207029
101327.208588
101327.209961
101327.211057
101327.21146
101326.990453
101326.990271
101326.990014
101326.989641
101326.989139
101326.987781
101326.980898
101326.98329
101326.98655
101326.989648
101326.993039
101326.994876
101327.000546
101326.999103
101327.001889
101327.003153
101327.004918
101327.006316
101327.007488
101327.007862
101326.783087
101326.782906
101326.782634
101326.782225
101326.781476
101326.778717
101326.772567
101326.774572
101326.777063
101326.77972
101326.782826
101326.784805
101326.789238
101326.78966
101326.791559
101326.793026
101326.794798
101326.796181
101326.797365
101326.797712
101326.56333
101326.563088
101326.562691
101326.56201
101326.559999
101326.554118
101326.552675
101326.555431
101326.558458
101326.56161
101326.565008
101326.567766
101326.571111
101326.573967
101326.574349
101326.576393
101326.578028
101326.579432
101326.580614
101326.580938
101326.335619
101326.335226
101326.33442
101326.332161
101326.327374
101326.323608
101326.32608
101326.329692
101326.333361
101326.337036
101326.340732
101326.344135
101326.346867
101326.350814
101326.350468
101326.353076
101326.354518
101326.35601
101326.357167
101326.3575
101326.099585
101326.098005
101326.095559
101326.092545
101326.090219
101326.092188
101326.095855
101326.099737
101326.10362
101326.107427
101326.111122
101326.114682
101326.117135
101326.121007
101326.120774
101326.123273
101326.124518
101326.126003
101326.127045
101326.127358
101325.851759
101325.85129
101325.85075
101325.851204
101325.854049
101325.857846
101325.861814
101325.865725
101325.86952
101325.873166
101325.876616
101325.879919
101325.882177
101325.88519
101325.885344
101325.886989
101325.888088
101325.889341
101325.89017
101325.890407
101325.620884
101325.62176
101325.623172
101325.624994
101325.627087
101325.629257
101325.631413
101325.633526
101325.635594
101325.637613
101325.639549
101325.641435
101325.642699
101325.644055
101325.644164
101325.644262
101325.645014
101325.645652
101325.646088
101325.646113
101325.378889
101325.379255
101325.379867
101325.380764
101325.381917
101325.383303
101325.384901
101325.38668
101325.38859
101325.390543
101325.392397
101325.394011
101325.394984
101325.395131
101325.394951
101325.393634
101325.394051
101325.394074
101325.394219
101325.394111
101325.212214
101325.211033
101325.209313
101325.206947
101325.203819
101325.199823
101325.194876
101325.188931
101325.181991
101325.174132
101325.165531
101325.15654
101325.147711
101325.139714
101325.135318
101325.133461
101325.133124
101325.131892
101325.130724
101325.130051
101330.634724
101330.802322
101330.83155
101330.891906
101331.142984
101331.17608
101331.440582
101331.475132
101331.634256
101331.675784
101331.707994
101331.742172
101331.719561
101331.744894
101331.697436
101331.715195
101331.655827
101331.667675
101331.604374
101331.61201
101331.548421
101331.553227
101331.490463
101331.493422
101331.431562
101331.433339
101331.372056
101331.373084
101331.311912
101331.312468
101331.25093
101331.251194
101331.188799
101331.188911
101331.125334
101331.12535
101331.060561
101331.060498
101330.994276
101330.994177
101330.926098
101330.925985
101330.855767
101330.855646
101330.783083
101330.782958
101330.707865
101330.707738
101330.629947
101330.629821
101330.549178
101330.549056
101330.465417
101330.4653
101330.378529
101330.378419
101330.288384
101330.288282
101330.194851
101330.194758
101330.097798
101330.097715
101329.997097
101329.997024
101329.892619
101329.892558
101329.784209
101329.784165
101329.671803
101329.671775
101329.5554
101329.555385
101329.434849
101329.434849
101329.309942
101329.309956
101329.180486
101329.180511
101329.046303
101329.046337
101328.907215
101328.907256
101328.763057
101328.763102
101328.613669
101328.613715
101328.458896
101328.458942
101328.29858
101328.298624
101328.13255
101328.132591
101327.960661
101327.960699
101327.782724
101327.782758
101327.598549
101327.598577
101327.407994
101327.408017
101327.211004
101327.21102
101327.007437
101327.007445
101326.79731
101326.797309
101326.580533
101326.580524
101326.35709
101326.357072
101326.126942
101326.126917
101325.889993
101325.88996
101325.645685
101325.645647
101325.393725
101325.393686
101325.129875
101325.12986
)
;

boundaryField
{
    inletfuel
    {
        type            zeroGradient;
    }
    inletair
    {
        type            zeroGradient;
    }
    outlet
    {
        type            fixedValue;
        value           uniform 101325;
    }
    axis
    {
        type            empty;
    }
    leftside
    {
        type            zeroGradient;
    }
    burnerwall
    {
        type            zeroGradient;
    }
    front
    {
        type            wedge;
    }
    back
    {
        type            wedge;
    }
}


// ************************************************************************* //
