/*--------------------------------*- C++ -*----------------------------------*\
| =========                 |                                                 |
| \\      /  F ield         | OpenFOAM: The Open Source CFD Toolbox           |
|  \\    /   O peration     | Version:  2.4.x                                 |
|   \\  /    A nd           | Web:      www.OpenFOAM.org                      |
|    \\/     M anipulation  |                                                 |
\*---------------------------------------------------------------------------*/
FoamFile
{
    version     2.0;
    format      ascii;
    class       volScalarField;
    location    "1000";
    object      T;
}
// * * * * * * * * * * * * * * * * * * * * * * * * * * * * * * * * * * * * * //

dimensions      [0 0 0 1 0 0 0];

internalField   nonuniform List<scalar> 
1629
(
284.409561212
293.388269602
293.978400209
286.499894813
293.38623699
293.972066848
290.823986178
293.703283264
294.207779658
292.967469066
296.177672306
323.51605502
294.381759836
300.426205802
347.642898442
296.004984618
306.420788524
369.364145782
298.44782422
314.173659011
388.356959666
302.197573809
323.574620829
404.63200897
307.649476933
334.405204211
418.729047236
315.048487784
346.356465115
431.305452535
324.426721168
359.074523173
442.8677118
335.617070046
372.276053042
453.799558713
348.429313345
385.934728802
464.567469571
362.959922479
400.460328679
475.795163051
379.843350678
416.713291186
488.292335385
400.476927083
436.129010717
503.239269455
427.127953535
460.60658326
522.289737403
461.602131859
491.507370832
547.419958829
503.862559624
529.882224733
580.813834313
555.003385016
577.906135617
624.280525439
616.620617894
636.634535319
678.052341052
686.905058142
704.036663845
740.132661399
761.16858603
775.684747639
806.673670712
833.962217506
846.416072386
873.171881371
901.048821499
912.113401774
935.885613265
960.583863919
970.845133737
992.823165397
1013.18569386
1023.00666263
1043.98973606
1061.09414723
1070.59980824
1090.90603908
1106.8819451
1116.02389966
1135.59115303
1152.34907879
1161.01677179
1179.62796028
1198.11366459
1206.23243825
1223.7225584
1243.83878455
1251.41687983
1267.78116558
1288.75128833
1295.87124148
1311.25939335
1332.12260118
1338.90289269
1353.5470911
1373.53181776
1380.08666683
1394.22015858
1412.91358347
1419.3265693
1433.12670689
1450.50170004
1456.81561658
1470.37926977
1486.73656799
1492.95593941
1506.30123738
1522.15217011
1528.25200063
1541.33462395
1557.27975919
1563.21516382
1575.94765018
1592.60187074
1598.31675682
1610.58642473
1628.53673126
1633.97196773
1645.65808244
1665.42915919
1670.52902547
1681.51658112
1703.54781561
1708.26403795
1718.45261665
1743.09071954
1747.38447246
1756.69275895
1784.19835923
1788.04100343
1796.40845711
1826.96487085
1830.33801813
1837.72503436
1871.44557055
1874.34096223
1880.72851948
1917.66410368
1920.08378987
1925.47373897
1965.61628401
1967.57301047
1971.98876013
2015.26977739
2016.78748241
2020.27508365
2066.57072906
2067.68439538
2070.31239439
2119.45872981
2120.21406025
2122.07304927
2173.86921828
2174.32396271
2175.52954602
2229.67990939
2229.90434835
2230.59852018
2286.72072146
2286.79702698
2287.14774833
2344.67557275
2344.69343535
2344.88615204
2402.91084461
2402.94994375
2403.14689745
2458.8579976
2458.92009704
2459.11507844
2493.87459563
2493.39568906
2492.28533183
2385.84743084
2384.31098218
2380.9792497
2245.44624672
2243.43138865
2239.11716002
2116.40470288
2114.16820436
2109.39988436
756.270678665
663.645501294
611.604243368
588.197022922
576.698297084
571.43774161
569.701086473
569.811647695
570.786077214
572.415787746
575.162706237
579.760777538
587.350642116
599.58225455
618.381975508
645.679564208
682.853169602
729.952208372
785.251381168
845.541123989
907.015624672
966.324302603
1021.36891822
1071.65476689
1118.04986767
1162.06016941
1205.05658007
1247.81467995
1290.46261845
1332.67767026
1373.9795999
1413.96458193
1452.41936659
1489.35504717
1524.98986852
1559.67932752
1593.83045234
1627.85235309
1662.13883982
1697.05030543
1732.8969223
1769.93159093
1808.35452113
1848.31986866
1889.94168725
1933.30278724
1978.45977825
2025.44414422
2074.26556545
2124.92602886
2177.4322303
2231.73817167
2287.75048557
2345.20809767
2403.41076375
2459.32791962
2490.6067605
2376.56120423
2233.34500658
2102.95248402
294.006555761
294.002678898
294.001663671
294.000971572
294.000431959
294.000143865
294.000039137
294.000011551
294.00000652
294.000006466
294.000007262
294.000008215
294.000008861
294.000009936
294.000009881
294.000011883
294.000009673
294.000014203
294.000007114
294.0000036
295.054202931
294.272752253
294.082049085
294.028099573
294.008859572
294.002242749
294.000432018
294.000054809
293.999995896
293.999991201
293.999993594
293.999996706
293.999998892
294.000002137
294.000002503
294.000007928
294.000003182
294.000013219
293.999991475
293.999977779
373.626022944
308.292521008
296.787833731
294.525934018
294.102869927
294.019432803
294.003126272
294.000393877
294.000023571
293.99998728
293.999988995
293.999993966
293.999997723
294.000002697
294.000004067
294.000011629
294.000006826
294.000018797
293.999983829
293.999955225
2044.41569789
535.639955678
334.341183738
300.660212378
294.939182383
294.131186667
294.018307817
294.002243026
294.000207837
293.999997819
293.999986542
293.999992552
293.999998042
294.000004602
294.000007526
294.000016692
294.000013728
294.000027177
293.999986409
293.999962275
2044.50960605
994.127444624
410.564749846
316.265326812
297.601100008
294.511023687
294.071264781
294.009120867
294.000959578
294.00006063
293.999987451
293.999990808
293.999997984
294.000006228
294.000011052
294.000022056
294.000022333
294.000039417
294.000009654
294.000023617
1775.34138674
1736.25017098
541.509950768
343.26474171
302.96272055
295.381147587
294.201825453
294.027755518
294.003239246
294.000284222
294.00000178
293.999989787
293.99999799
294.000008108
294.000015242
294.000028499
294.00003346
294.000055817
294.000049625
294.000108458
1521.22209606
2519.05531161
681.133735407
375.797946775
310.654023909
296.864653564
294.452121838
294.067594846
294.008760026
294.000903378
294.000054641
293.999991892
293.999998422
294.000010362
294.000020125
294.000035847
294.000046562
294.00007442
294.000095646
294.000192852
1327.95466833
2480.89765473
878.072453919
415.380741702
320.708901725
299.075598118
294.868248909
294.140734229
294.020151777
294.002349708
294.000199136
294.000002256
293.999999644
294.000012896
294.000025446
294.000043643
294.000060528
294.000093113
294.0001391
294.000261046
1192.14153365
2311.52774643
1155.86829693
468.603173436
334.073847212
302.237948816
295.513587529
294.263312838
294.04121754
294.00534199
294.00053687
294.00003188
294.000002563
294.000015664
294.000030945
294.000051454
294.000074302
294.000110324
294.000175335
294.000308309
1094.39499325
2154.26223351
1513.67923492
539.534353496
351.600131055
306.602128162
296.465969248
294.45616897
294.077193989
294.010991655
294.001246413
294.000102486
294.000009183
294.000018696
294.000036357
294.000058877
294.000087029
294.000125119
294.000203165
294.000339135
1020.09628082
2003.18261939
1918.37191353
631.334947021
374.084817151
312.418839767
297.812667711
294.74480265
294.134952163
294.020914081
294.002620084
294.000253876
294.000023605
294.00002219
294.000041429
294.000065556
294.000098088
294.000137049
294.000223005
294.000357925
960.022871053
1849.86674601
2293.60112494
754.232418216
402.577056102
319.936394104
299.645753062
295.158972704
294.223142253
294.037340752
294.005109038
294.000554533
294.000053675
294.000026713
294.000045959
294.000071211
294.000107091
294.000145988
294.000235858
294.000368092
910.324864272
1695.30505824
2430.98901429
930.71272524
438.497849734
329.377863123
302.057292878
295.732512947
294.352402646
294.063248389
294.009378596
294.001116295
294.000113567
294.000033534
294.000049851
294.00007565
294.000113853
294.000152041
294.000242971
294.000372493
871.735204375
1548.42267649
2317.38740008
1156.41495426
483.095011275
341.122485368
305.182213184
296.510150882
294.536493396
294.102608645
294.016385099
294.002114948
294.00022768
294.000045156
294.000053165
294.000078765
294.000118347
294.000155457
294.000245568
294.000373245
842.514985214
1428.7467667
2220.02915542
1444.37183242
540.849450031
356.094528585
309.267587461
297.560055382
294.794565708
294.160841267
294.027490502
294.003819727
294.000436517
294.000066183
294.000056219
294.000080534
294.000120662
294.000156546
294.000244717
294.00037177
821.449905012
1331.28156632
2116.85318042
1787.47787075
618.164716768
375.680119713
314.678733457
298.979976747
295.153114121
294.245349381
294.044614364
294.006634433
294.000805394
294.000104681
294.000059738
294.000081013
294.000120952
294.000155633
294.000241282
294.000368988
808.312825973
1250.50517276
1996.14617737
2141.53208088
732.157064757
402.19696819
321.896157044
300.895155189
295.646478411
294.365926882
294.07040315
294.011151156
294.001436932
294.000174292
294.000065117
294.000080355
294.000119415
294.000153025
294.000235937
294.000365479
803.545841457
1184.49038368
1858.40387571
2449.33232391
914.04897501
438.234631557
331.361295177
303.435527103
296.314500132
294.53483942
294.108392727
294.018216803
294.002488503
294.000297429
294.00007484
294.000078834
294.000116262
294.000148991
294.000229191
294.000361582
808.384679866
1138.96293187
1715.61555592
2361.83260138
1151.64762825
484.946776807
343.557168289
306.768341174
297.208187248
294.767822668
294.163285469
294.029025038
294.004196866
294.000510074
294.000093157
294.000076908
294.000111716
294.000143762
294.000221418
294.000357499
823.89283151
1112.76145036
1601.60434878
2243.81467244
1452.86193226
550.228299533
359.99660148
311.244087169
298.412043324
295.087429055
294.241550633
294.045261209
294.006914409
294.000869027
294.00012716
294.000075335
294.000106003
294.000137526
294.000212893
294.000353329
850.34148162
1104.65872459
1523.6795155
2150.6847758
1804.80282757
647.510082282
383.260390761
317.440674451
300.058469499
295.526209407
294.352143186
294.06929525
294.011160085
294.001462691
294.000188494
294.000075361
294.000099369
294.000130431
294.000203816
294.000349132
886.798959912
1112.30903073
1478.66736597
2049.7891386
2161.04139827
794.253282111
416.963511263
326.151566855
302.331275384
296.128129213
294.507017695
294.104382564
294.017684249
294.002426435
294.000296001
294.000079061
294.000092109
294.000122594
294.000194338
294.000344915
931.173685342
1132.37010945
1455.71035164
1957.3767798
2469.04628943
996.532203468
464.335865009
338.191991765
305.445254767
296.946952789
294.721178194
294.154824671
294.027543503
294.003963426
294.000479675
294.000089875
294.000084624
294.000114111
294.00018455
294.000340622
980.633393481
1161.37284773
1448.57735603
1879.79930063
2395.09809501
1237.779931
527.035545262
354.156468214
309.60771471
298.042285485
295.012337165
294.22607348
294.042182798
294.006371903
294.000786422
294.000113462
294.000077508
294.000105066
294.000174496
294.000336194
1032.16337512
1196.11002603
1453.56058267
1830.31155826
2302.13417868
1506.17552434
609.741165377
375.071991341
315.100481356
299.491467282
295.40263659
294.325067662
294.06355338
294.010082705
294.00128845
294.000159019
294.000071704
294.000095553
294.000164185
294.000331563
1083.14603113
1233.71392731
1466.98408474
1802.5350128
2234.80260333
1774.81108898
718.991669615
402.800444537
322.392214102
301.413607982
295.923048968
294.461019801
294.094305761
294.015713583
294.002095611
294.00024133
294.000068751
294.000085695
294.000153623
294.000326668
1131.81947103
1271.85478653
1485.4396678
1788.97960586
2186.89843673
2016.53009258
857.670782028
439.504806392
332.104437166
303.975601171
296.616117465
294.646137618
294.138011443
294.024139751
294.003372877
294.000383895
294.000071193
294.000075693
294.000142806
294.00032146
1177.51543673
1309.02456765
1506.3139991
1784.01907698
2152.20544323
2219.4800616
1023.99402446
487.485218501
344.964589381
307.386570157
297.536159224
294.895892007
294.199333409
294.036571469
294.00536324
294.000623495
294.000083222
294.000065887
294.000131741
294.000315901
1220.5369946
1344.6170827
1527.97345316
1783.98333535
2126.43776326
2384.75406889
1212.57688699
549.07518116
361.721282082
311.873563149
298.745494107
295.22848638
294.284059029
294.054623833
294.008415224
294.001016513
294.000111661
294.000056873
294.000120449
294.000309964
1261.70390771
1378.73349152
1549.63272921
1786.47982511
2103.61838106
2453.46660427
1406.61846896
623.896085388
382.655054821
317.604546591
300.304963877
295.663666078
294.399004374
294.080373349
294.013014645
294.001647389
294.0001674
294.000049657
294.000108978
294.000303634
1301.87255308
1411.91027648
1571.26902489
1790.57933416
2081.91167904
2413.1349777
1599.3825585
712.497064013
408.157579167
324.784457866
302.290782706
296.225538129
294.552448119
294.116475949
294.019827861
294.002640188
294.000267478
294.00004591
294.00009743
294.000296908
1341.62146879
1444.81418092
1593.43546524
1796.91735665
2065.79410969
2376.40980926
1779.11771784
819.786030975
440.007177208
333.894256772
304.836520572
296.94983263
294.755316416
294.16639745
294.029764678
294.004174736
294.000438111
294.000048341
294.00008597
294.000289789
1381.11941146
1477.87613534
1616.59685539
1805.84557611
2055.21916149
2347.4319184
1938.12613967
948.880061487
480.679125404
345.619867695
308.13119794
297.885300013
295.021648661
294.234573265
294.044043057
294.006506632
294.000718876
294.000061276
294.000074888
294.000282297
1420.2075213
1511.18166188
1640.88958142
1817.28352727
2049.23196764
2324.19498765
2075.25179437
1098.67387458
532.762689439
360.736813665
312.398524005
299.090452793
295.368004741
294.326362639
294.064228262
294.009987976
294.001168038
294.000091491
294.000064657
294.000274462
1458.57404535
1544.54238145
1666.14879091
1830.89280284
2046.97917843
2305.79966389
2192.20168871
1263.3355013
599.120223233
380.114353292
317.885928588
300.630651521
295.812574792
294.447844326
294.092235614
294.015085616
294.001868721
294.000149303
294.000056067
294.000266349
1495.9139883
1577.63219987
1692.0222646
1846.20816131
2047.81407212
2291.93452784
2292.49455956
1430.55811621
682.457531329
404.741091684
324.862452997
302.577164338
296.374605856
294.605579081
294.130305442
294.022395502
294.00293569
294.000249981
294.000050347
294.000258047
1532.04453878
1610.13665673
1718.12048569
1862.77778697
2051.26389681
2282.40819454
2379.15753164
1587.18234669
783.666078706
435.7650027
333.644925528
305.014501284
297.07568988
294.806650226
294.180994977
294.032656738
294.004522924
294.000415453
294.000049372
294.000249726
1566.96540581
1641.86867372
1744.14157794
1880.23642744
2056.96343238
2276.86240916
2452.32669497
1726.07401794
899.379700691
474.321620363
344.631190429
308.054439778
297.943008608
295.059113882
294.247222232
294.046769933
294.006832349
294.000676446
294.000055932
294.00024159
1600.84378681
1672.79807666
1769.89980347
1898.24584869
2064.22994265
2271.99122832
2473.89412997
1842.04032489
1026.76870969
522.182865354
358.391273726
311.852006056
299.012603744
295.37249252
294.33231396
294.065814084
294.010123116
294.001075023
294.00007401
294.000233939
1633.94936807
1703.01729954
1795.3219146
1916.56986985
2072.632698
2267.39925435
2460.47780168
1937.67149451
1161.10644905
582.016338981
375.752979134
316.614818732
300.330809261
295.757911201
294.439976585
294.091047463
294.01471921
294.001667299
294.000109236
294.000227109
1666.60494419
1732.71035408
1820.44585894
1935.11898756
2082.10182133
2264.86712409
2447.36509499
2020.62584685
1291.52898572
655.7540051
397.731374381
322.596974255
301.953103841
296.227695614
294.574148667
294.123880993
294.021012828
294.002526049
294.000169291
294.000221681
1699.1695068
1762.15250198
1845.4416819
1953.95153918
2092.59252264
2264.47580137
2437.27567557
2093.161406
1410.78130049
743.269104592
425.500395391
330.10677763
303.945900881
296.795434664
294.738881239
294.165839479
294.029463579
294.003742872
294.000264491
294.000218428
1732.01320939
1791.68223137
1870.5840182
1973.25237392
2104.17002474
2266.10351571
2429.97335023
2155.51501562
1515.81325554
841.083709628
460.403405964
339.551882745
306.396048753
297.477399898
294.938422291
294.218539651
294.040596389
294.005430026
294.000408232
294.000218543
1765.48658806
1821.65556104
1896.19710844
1993.28173021
2117.00270895
2269.68745623
2425.15763762
2207.12254818
1603.88862998
945.18139006
504.024726068
351.478808168
309.41766807
298.293457912
295.177222014
294.283651532
294.054994545
294.007721402
294.000617521
294.000223631
1799.89921135
1852.40930061
1922.60556644
2014.31275197
2131.25875477
2275.26908584
2422.6741953
2248.34055561
1677.94694864
1047.78999558
557.384737752
366.542542191
313.152035214
299.267042927
295.459816237
294.362831228
294.073285118
294.010772188
294.000913357
294.000235924
1835.51345455
1884.2435755
1950.10905848
2036.60537305
2147.11175604
2282.96585128
2422.44840756
2279.79849328
1740.39847994
1142.25683311
620.088732855
385.531227232
317.790958057
300.429264119
295.791355011
294.45775038
294.096133662
294.01475869
294.001321127
294.000258416
1872.54529051
1917.41632471
1978.97398563
2060.4030439
2164.75518432
2292.89860052
2424.40708367
2301.94768505
1791.83579692
1224.63456472
690.197119308
409.371427825
323.606554454
301.824143156
296.178312895
294.57015539
294.124242226
294.019877978
294.001871075
294.000295008
1911.1678174
1952.14296432
2009.42942093
2085.92548402
2184.33088633
2305.09758711
2428.42408069
2315.11580228
1831.87261342
1291.55716365
766.144400075
439.108256261
330.957766114
303.509034594
296.628300828
294.701770166
294.158321604
294.026343761
294.002598259
294.000350896
1951.52134668
1988.6066975
2041.67356105
2113.3548226
2205.9662681
2319.60481591
2434.36123387
2319.76802047
1861.14070165
1346.49044089
841.360834744
475.242794784
340.282800792
305.559285615
297.15068232
294.854310811
294.199073492
294.0343817
294.003542778
294.000432573
1993.7197275
2026.96512485
2075.88038825
2142.83849218
2229.82276605
2336.50778191
2442.1042743
2316.24316839
1880.27730826
1391.18428853
910.575504699
517.332076132
352.161951121
308.096724485
297.760936769
295.030077036
294.247257883
294.044234573
294.004750217
294.000548628
2037.85415628
2067.35785544
2112.21120915
2174.52141164
2256.0215373
2355.80706349
2451.23454606
2303.19729168
1889.53092762
1425.76429276
968.141816268
566.152875855
367.394233975
311.301178086
298.48084809
295.231760307
294.303632853
294.056149481
294.006271189
294.00070947
2083.99402592
2109.90426904
2150.79534152
2208.55695605
2284.64185037
2377.2815031
2460.00619324
2282.0667066
1889.49252481
1450.56357693
1014.46999004
619.159015569
386.600608692
315.385122881
299.334170785
295.461490298
294.368736012
294.070336118
294.008156315
294.00092832
2132.20054823
2154.71842022
2191.79055681
2245.1168485
2315.83263546
2401.0604491
2469.36585553
2254.3521543
1880.71433509
1466.12616692
1051.66444722
671.968059516
409.914232127
320.636678016
300.357184661
295.722279285
294.443047468
294.086975178
294.010456094
294.001221664
2182.55018612
2201.94754649
2235.40584539
2284.44554813
2349.83152822
2427.22380426
2478.63930049
2219.12593847
1862.16448691
1471.80238443
1079.86937456
718.555603564
438.382153241
327.493761787
301.605127633
296.018293247
294.526955018
294.106200696
294.013215857
294.001612483
2235.07529814
2251.68007434
2281.66455191
2326.16239734
2384.47044477
2445.09498505
2430.24859569
2169.21461542
1833.30382403
1467.76763379
1099.10907864
756.051989304
471.817753295
336.440975194
303.15202345
296.354310804
294.62055148
294.128043209
294.016480068
294.002124876
2289.76984554
2303.99724173
2330.69299759
2370.35529749
2420.01500246
2458.3299787
2363.95738525
2109.37511119
1795.67928888
1455.1546362
1110.09608346
785.519801964
507.640928428
347.805982559
305.11074136
296.739343507
294.724126626
294.152334746
294.020415065
294.002792904
2346.44661383
2358.73749431
2382.2111706
2416.24749485
2453.96441876
2458.99596781
2289.9136876
2040.86884872
1749.21111041
1433.88877333
1112.83825227
807.51784151
540.760723939
363.247944148
307.716700824
297.190291878
294.838031775
294.179129061
294.025104206
294.003656497
2404.31700709
2414.64114973
2433.54610274
2456.88529581
2465.35377066
2376.75957522
2195.4520314
1961.80806666
1693.78193037
1404.11653738
1107.52706651
822.404468654
569.000525189
382.577230962
311.248888597
297.732919283
294.962082156
294.209481446
294.030672693
294.00476579
2459.88249643
2466.20340391
2474.16127141
2468.90205424
2397.10701128
2266.51304723
2088.97200583
1874.38299271
1630.6871304
1366.8139792
1094.89770185
830.646582939
591.722075233
403.928014997
316.578137303
298.453678199
295.109330045
294.244104371
294.037287748
294.006182284
2486.39924411
2469.83126837
2430.83039436
2366.60364011
2269.9559671
2139.23874497
1975.65249999
1781.94662932
1562.43784118
1323.87347246
1076.31627172
833.077717595
609.296527728
425.628458578
324.099813866
299.51204812
295.293070729
294.284327841
294.045190774
294.007986118
2366.9887121
2338.86512812
2292.00932458
2223.46691518
2130.23620969
2010.39579505
1863.37869393
1690.14268781
1493.53704885
1278.87860421
1054.50254623
831.578231513
623.00840899
446.471912863
334.119646516
301.109734028
295.536611697
294.332654611
294.054767307
294.010284532
2220.95913893
2191.14065634
2145.2618781
2080.90918733
1995.74474468
1887.94918142
1756.59739617
1602.03070661
1426.28813373
1233.59751875
1030.80952462
827.173173564
633.655645487
465.666231187
346.631382532
303.549847325
295.88043772
294.393498016
294.066633526
294.013226561
2089.09320299
2059.73844138
2016.79996205
1958.07828852
1881.46919605
1785.22530333
1668.26070779
1530.50181877
1373.2922454
1199.83749445
1015.6125317
828.209838646
647.014024496
485.672889609
362.116344794
307.384319667
296.404152362
294.475499218
294.081850042
294.016999783
294.001204102
294.000976298
294.001260792
294.001162794
294.001277431
294.001307142
294.001268013
294.001355296
294.001225694
294.001308187
294.001160014
294.001223326
294.001092472
294.001128963
294.001029479
294.001037275
294.000972577
294.000953116
294.000922182
294.000878562
294.000877712
294.000813636
294.000838155
294.000757373
294.000802493
294.000708532
294.000769837
294.000665873
294.000739453
294.000628261
294.000710738
294.000594707
294.000683256
294.000564379
294.000656737
294.000536679
294.000631017
294.000511384
294.000606053
294.000487966
294.000581765
294.000465915
294.000558081
294.000444889
294.000534963
294.000424647
294.000512331
294.000405012
294.000490134
294.00038586
294.000468311
294.000367106
294.000446802
294.000348698
294.000425583
294.000330601
294.000404566
294.000312802
294.0003838
294.000295299
294.000363195
294.000278099
294.000342902
294.00026123
294.000322798
294.000244707
294.000303118
294.000228581
294.000283983
294.000212959
294.000265879
294.000198075
294.000248583
294.000183964
294.000232597
294.000170708
294.000217693
294.000158374
294.000204562
294.000147125
294.000193301
294.000137131
294.00018478
294.000128689
294.000179906
294.000122224
294.000179743
294.000118304
294.000186666
294.000117864
294.000202121
294.000121994
294.000230848
294.000132575
294.000275171
294.000151632
294.000343212
294.000182593
294.000439252
294.000229165
294.000576787
294.000297413
294.000763735
294.000393826
294.001020743
294.000528478
294.001363125
294.000712692
294.001823125
294.000963364
294.002428765
294.001300198
294.003225876
294.001749677
294.004265014
294.002344251
294.005620493
294.003127087
294.007381839
294.004153356
)
;

boundaryField
{
    inletfuel
    {
        type            fixedValue;
        value           uniform 294;
    }
    inletair
    {
        type            fixedValue;
        value           uniform 294;
    }
    outlet
    {
        type            zeroGradient;
    }
    axis
    {
        type            empty;
    }
    leftside
    {
        type            fixedValue;
        value           uniform 294;
    }
    burnerwall
    {
        type            zeroGradient;
    }
    front
    {
        type            wedge;
    }
    back
    {
        type            wedge;
    }
}


// ************************************************************************* //
