/*--------------------------------*- C++ -*----------------------------------*\
  =========                 |
  \\      /  F ield         | OpenFOAM: The Open Source CFD Toolbox
   \\    /   O peration     | Website:  https://openfoam.org
    \\  /    A nd           | Version:  dev
     \\/     M anipulation  |
\*---------------------------------------------------------------------------*/
FoamFile
{
    version     2.0;
    format      ascii;
    class       volScalarField;
    location    "0.3";
    object      a;
}
// * * * * * * * * * * * * * * * * * * * * * * * * * * * * * * * * * * * * * //

dimensions      [0 -1 0 0 0 0 0];

internalField   nonuniform List<scalar> 
1629
(
3.53076372467e-10
3.64160397304e-10
3.33123875439e-10
4.53857870034e-08
7.16766979893e-08
1.43952573652e-07
2.96397155153e-06
7.88535743452e-06
3.51016014101e-05
0.000128459494937
0.000590709027348
0.00589962334062
0.000469616124586
0.00176190576597
0.0109408292259
0.00113752715101
0.00361709851681
0.0157566946047
0.00232731981058
0.00633498144099
0.0207470261482
0.00500019926712
0.0126805492672
0.0394681418744
0.0110686112075
0.0253460497694
0.0692158642739
0.023013139905
0.0454783666164
0.103808412538
0.0427662752152
0.0723423618158
0.138472723049
0.0709037625202
0.104784143679
0.173169735989
0.106840063156
0.14222513627
0.209876498837
0.149496811101
0.184459537225
0.2499040906
0.197670025962
0.23110376494
0.293425906034
0.249535347041
0.28048720825
0.337995052575
0.302629968471
0.330172541998
0.381015900374
0.354458713034
0.377935297375
0.420928388515
0.40308263046
0.422269735415
0.457137827557
0.447354952448
0.462441218135
0.489677676124
0.48682201214
0.498258183738
0.518780873494
0.521461299648
0.529780711591
0.54457978322
0.551441279927
0.557146742437
0.567107959468
0.576919435191
0.580439873804
0.586307543335
0.597998768008
0.599702679164
0.602134173735
0.614832953458
0.61506214283
0.614694263735
0.627708827746
0.62679159856
0.624249323568
0.636995396403
0.63523106241
0.631083631511
0.643048978418
0.64068779372
0.635406382005
0.646167123692
0.643406244094
0.637361427161
0.646616230142
0.64361102132
0.637099517079
0.644677026905
0.641552465877
0.63481818535
0.640655825928
0.637511952601
0.63075326271
0.634870668178
0.6317847849
0.625156703797
0.627618219795
0.624645737554
0.618260388165
0.6191446294
0.616320610559
0.61024945032
0.609648666216
0.606992425723
0.601275320683
0.59931103099
0.596831900794
0.591488846929
0.588312329144
0.586011183355
0.581041134518
0.576808150882
0.574679196113
0.570074492517
0.564941946765
0.562980464524
0.558732123665
0.55283992959
0.551037061877
0.547127034444
0.540583105717
0.538926894248
0.535330349889
0.528213972933
0.526691095095
0.523380200896
0.515752671233
0.514350214125
0.51129795266
0.503213439435
0.501919957045
0.49910237145
0.490614531744
0.489420308321
0.486817033052
0.477979198346
0.476876094749
0.474470027591
0.465330552489
0.464311783416
0.462088630833
0.45268711918
0.451747188421
0.44969534726
0.440067728149
0.439202492563
0.437313184395
0.427509237946
0.426715715525
0.424982531459
0.415085267939
0.414360667529
0.412777431556
0.402897315002
0.402237299867
0.400794343674
0.391022115339
0.390419295515
0.389100300053
0.379441990926
0.378885786953
0.377667597842
0.368001784871
0.367479785527
0.366335410632
0.356414424014
0.355914555878
0.354817878264
0.344303204088
0.343815742256
0.342745860746
0.331237479527
0.330756538196
0.329700987463
0.316810909008
0.316336235798
0.315294945009
0.300742671153
0.300281106397
0.299269599118
0.283366011114
0.282933331545
0.281986996871
0.0593932986984
0.0508796201843
0.0446142044447
0.0452196565121
0.102632990433
0.156248878939
0.197154363185
0.226995402914
0.255295932421
0.287434193976
0.323845680682
0.363602012674
0.401832368575
0.436230604796
0.466542423421
0.493327258331
0.517389932509
0.539251337186
0.558921531206
0.576211152796
0.590899186343
0.602900556956
0.612351830411
0.619515170769
0.62459946424
0.627687917621
0.628810187092
0.628045995061
0.625545088308
0.621496874711
0.616103755791
0.609546020926
0.601959841801
0.59345952501
0.584167533895
0.57421505157
0.563737985806
0.552874539979
0.541725400575
0.530352416809
0.518789565209
0.507059260876
0.495184313382
0.483192980984
0.47111755472
0.458988912458
0.446833035589
0.434676576838
0.422562840852
0.410565759843
0.398776647373
0.387253314312
0.375958853387
0.364727495796
0.353274954368
0.341239592338
0.328215000759
0.313830257171
0.297849451304
0.280663366899
0.100006892673
0.1000068188
0.100006830672
0.100006847978
0.100006861244
0.100006870314
0.100006875445
0.100006876755
0.100006874557
0.100006869283
0.100006861357
0.100006851067
0.100006838477
0.100006823331
0.100006804924
0.10000678192
0.100006751878
0.100006711737
0.100006650178
0.10000663766
0.100005952969
0.100006405026
0.100006658194
0.100006764565
0.100006805647
0.100006820916
0.100006825848
0.100006825294
0.100006821017
0.100006813982
0.100006804821
0.100006793853
0.100006781092
0.100006766237
0.10000674854
0.100006726796
0.100006697826
0.100006662587
0.100006591604
0.100006538952
0.0999331578474
0.100000206644
0.100005802771
0.100006681318
0.10000682575
0.10000682619
0.100006812889
0.100006802822
0.100006793554
0.10000678349
0.100006772445
0.100006760436
0.100006747318
0.100006732716
0.100006715797
0.1000066957
0.100006667677
0.10000663639
0.100006558611
0.100006456545
0.0949299025458
0.099875899564
0.100000294182
0.100006838225
0.100007256867
0.100007009293
0.100006856242
0.100006801173
0.100006779399
0.10000676521
0.100006752319
0.100006739421
0.100006726047
0.100006711737
0.100006695579
0.100006677054
0.10000665041
0.100006621803
0.100006541473
0.100006382356
0.0900493277187
0.0996782352381
0.0999982345652
0.100014621553
0.100011995871
0.100008644827
0.100007242964
0.100006863935
0.100006775961
0.100006749381
0.100006733707
0.10000671996
0.100006706465
0.100006692592
0.100006677358
0.100006660693
0.100006636304
0.100006612049
0.100006533348
0.100006469436
0.0840543898127
0.0995444152359
0.100188488366
0.100130824297
0.100059756393
0.100022410001
0.100010149165
0.100007340381
0.100006828195
0.100006739095
0.100006714813
0.100006699771
0.100006686266
0.100006673009
0.100006658943
0.100006644568
0.10000662352
0.100006607884
0.100006543465
0.100006578975
0.0955335085153
0.163857391275
0.112084759557
0.102523925301
0.100589430819
0.100132294395
0.100029543962
0.100010207456
0.100007179097
0.100006760153
0.10000669752
0.100006678455
0.100006664878
0.100006652419
0.10000663978
0.100006628139
0.100006611299
0.100006606928
0.100006562767
0.100006654137
0.320961875882
0.34065348742
0.388374624464
0.167229098031
0.107400879765
0.100882985683
0.100128523387
0.100023272406
0.100008754755
0.100006913728
0.100006691805
0.100006656951
0.100006642475
0.10000663093
0.100006619912
0.10000661126
0.100006598869
0.100006605174
0.100006580012
0.100006691933
0.364461292389
0.360888680952
0.422763326929
0.190174050075
0.113591038163
0.102006645584
0.100329605423
0.100056433865
0.100013435541
0.100007462535
0.100006727641
0.100006638112
0.100006619244
0.100006608472
0.100006599143
0.100006593456
0.100006585156
0.100006599622
0.100006588927
0.100006701029
0.37143681167
0.384451217531
0.436538703336
0.198101508175
0.118550397152
0.103393849377
0.100654188619
0.100122839799
0.100024601728
0.100008990973
0.100006882671
0.10000663018
0.100006595701
0.10000658479
0.100006577051
0.10000657406
0.100006569166
0.100006588935
0.100006587785
0.100006690495
0.368620262691
0.395873249708
0.461213176406
0.234865988119
0.132110254341
0.106407478136
0.101311971695
0.100262830733
0.100050317123
0.100012886023
0.100007352829
0.100006655855
0.100006573807
0.100006559715
0.100006553203
0.100006552476
0.100006550211
0.100006572853
0.100006577259
0.100006667093
0.379760423222
0.426806621244
0.355286120573
0.410480225178
0.195750237699
0.117482154968
0.103138934549
0.100601062516
0.10011148307
0.100022540859
0.10000862386
0.10000677429
0.100006559455
0.10000653348
0.10000652727
0.100006528274
0.100006527891
0.100006551556
0.100006558685
0.100006634955
0.404539457518
0.463301915974
0.242752724149
0.508300489932
0.262292822264
0.134719059808
0.106481217091
0.101265470362
0.100240364255
0.100044427821
0.100011744024
0.10000712504
0.100006567962
0.100006507284
0.100006499082
0.100006501175
0.100006502002
0.100006525344
0.100006533304
0.100006596577
0.435174226642
0.495358654286
0.230489915033
0.60390578797
0.316800037671
0.15451953661
0.111292233484
0.102356591625
0.100476750266
0.100088866848
0.10001868796
0.100008003944
0.100006635137
0.100006484545
0.100006468732
0.100006471021
0.100006472471
0.100006494559
0.100006502157
0.100006553678
0.468120643041
0.523153821443
0.275956623097
0.680596650384
0.403298388893
0.190324933487
0.119857305963
0.104247452559
0.100898397332
0.100173809709
0.100033066086
0.100009999209
0.100006838536
0.100006473529
0.100006436823
0.10000643777
0.100006439319
0.100006459561
0.100006466129
0.10000650748
0.493324924671
0.528726464385
0.332609305565
0.390892523851
0.504284201325
0.256221842337
0.136130579344
0.107629550833
0.101638529048
0.100329045112
0.100061146868
0.100014211546
0.100007335349
0.100006492463
0.100006405018
0.100006401524
0.100006402636
0.100006420704
0.100006425945
0.100006458767
0.511855448801
0.52962199994
0.363798152662
0.260477009492
0.571240157662
0.315767680558
0.155754546758
0.112365406445
0.102768949453
0.100586882181
0.100111941377
0.100022491088
0.100008420183
0.100006578696
0.100006377108
0.100006362619
0.100006362555
0.100006378307
0.100006382161
0.100006407972
0.526269162784
0.530921453022
0.390345769936
0.217412785639
0.650949068329
0.366124747732
0.175820785457
0.11816573483
0.104330480205
0.100981405273
0.100197576584
0.100037750887
0.100010613222
0.100006804487
0.100006361073
0.100006321802
0.100006319248
0.100006332632
0.100006335174
0.100006355298
0.53856292516
0.533900485
0.414582823137
0.22626784154
0.697994404203
0.426848470385
0.203263551163
0.126455236889
0.106613925283
0.101586268025
0.100338404682
0.100064840299
0.100014829624
0.100007305909
0.100006372997
0.100006280638
0.100006272937
0.100006283886
0.100006285258
0.100006300811
0.550280049648
0.539572262023
0.437024588808
0.258397615199
0.710752301089
0.52246534092
0.25755419553
0.14220272723
0.11054000145
0.102582060206
0.100574413684
0.100112488539
0.100022717325
0.100008337587
0.100006444577
0.100006242333
0.100006223964
0.100006232231
0.10000623259
0.1000062445
0.561934830389
0.547067134646
0.457261731436
0.296691113468
0.360049745217
0.581882308873
0.341509509856
0.170132191337
0.117303187907
0.104233103814
0.100968549078
0.100195146795
0.100037134204
0.100010363596
0.10000663671
0.100006213337
0.100006172937
0.100006177798
0.100006177276
0.100006186299
0.572948211496
0.553854925095
0.471443440971
0.326694834266
0.255865294473
0.621001455286
0.409297105119
0.201421763176
0.126339817822
0.106631361163
0.101579225618
0.100331704851
0.100062494254
0.100014176674
0.100007061446
0.100006206257
0.100006121026
0.100006120724
0.100006119369
0.100006126117
0.582643689358
0.558677311669
0.480042069153
0.346993378832
0.222205893453
0.663571870196
0.468448473846
0.234868556932
0.13766719687
0.109909103719
0.102474657867
0.100546846511
0.100105309152
0.100021067487
0.100007916454
0.100006244886
0.100006070523
0.1000060612
0.100006058888
0.100006063841
0.590602234584
0.561468304381
0.48485377139
0.361162281133
0.228688195034
0.668352798143
0.544771518948
0.287225882516
0.155507017423
0.11486631092
0.103822593236
0.100882721266
0.100175904581
0.100033141597
0.100009542845
0.100006372839
0.100006025843
0.100005999573
0.100005995828
0.100005999354
0.596831115115
0.563228274182
0.48924057903
0.376531867366
0.249466446383
0.403254270901
0.592612997427
0.360666165363
0.183659794486
0.122545715837
0.105865817418
0.101401520984
0.10028990805
0.10005373751
0.100012513246
0.100006667813
0.10000599529
0.100005936503
0.100005930183
0.100005932532
0.601630014042
0.564920834063
0.494752381945
0.393702713298
0.276965873628
0.286715652775
0.615278879626
0.424265221538
0.215584084188
0.132440217157
0.108667155327
0.102154489135
0.100465955024
0.10008759847
0.100017732657
0.100007262706
0.10000599402
0.100005873269
0.100005861961
0.100005863244
0.605283020475
0.56670539577
0.500467305955
0.40859209454
0.300591843504
0.232733492381
0.636970636843
0.480588930029
0.248234012411
0.143972130207
0.112222251053
0.103183317589
0.100724982545
0.100141075728
0.100026564082
0.100008376236
0.100006048853
0.100005812289
0.100005791227
0.10000579136
0.607850438707
0.568153833843
0.50501960909
0.419234079924
0.316131173747
0.216381001156
0.634583824835
0.537989356865
0.287125514984
0.158766712792
0.116910869114
0.10459109892
0.101099774143
0.100223514854
0.100041091595
0.100010363937
0.100006206247
0.100005758037
0.10000571817
0.100005716749
0.60918481044
0.568681538308
0.507526435805
0.42537912908
0.325038770494
0.218876437629
0.597939719048
0.599434879034
0.344499887861
0.181466717282
0.1237943646
0.10661242928
0.101649040376
0.100349850057
0.100064602039
0.100013804913
0.100006545689
0.10000571861
0.100005643222
0.100005639293
0.609140848148
0.568091597433
0.508426010544
0.429568995941
0.334235997442
0.23341528703
0.371348063343
0.618448068612
0.414351932588
0.214125642605
0.133808630257
0.109512982926
0.102449302333
0.100541196156
0.100102025834
0.100019616781
0.100007200236
0.10000570836
0.100005567266
0.100005558888
0.607723419466
0.566585566498
0.508665041867
0.433889509346
0.345680310839
0.253579713095
0.279161701023
0.621132524653
0.473809119444
0.250269849856
0.146357283503
0.113349593091
0.103558849276
0.100821100084
0.100159946523
0.10002916388
0.100008383862
0.100005751956
0.100005492003
0.100005475467
0.605040733555
0.564359337352
0.508574627634
0.438217989247
0.356787936139
0.272312922822
0.233506527553
0.615594768855
0.527603504162
0.289356878115
0.161504350111
0.11823360774
0.105041601668
0.10121706978
0.10024693312
0.100044399312
0.100010428509
0.100005890462
0.100005420537
0.100005389038
0.601220269415
0.561475647223
0.508011833948
0.44172817015
0.365566832377
0.285132938527
0.218803611622
0.584339509651
0.581220927102
0.338991853945
0.181899546496
0.124772649966
0.107044020681
0.101771835937
0.100375164765
0.100068157543
0.100013841981
0.100006190531
0.100005358308
0.100005299756
0.596379750165
0.557931727378
0.506802760483
0.444036217923
0.371885045016
0.294226238541
0.217821886755
0.445730992613
0.612086619423
0.397760439019
0.209277787882
0.133622991212
0.109750831933
0.102541612344
0.100561166164
0.100104462108
0.100019385168
0.100006757802
0.100005314496
0.100005208021
0.590606848921
0.553693500207
0.504857180643
0.445198201362
0.37654823124
0.302208503224
0.220324417333
0.345939015793
0.617887264478
0.452744181301
0.240889487988
0.144641516296
0.11323256875
0.103572535454
0.100823268787
0.100158511225
0.10002814077
0.100007753853
0.100005304096
0.100005114643
0.583953022086
0.548701415837
0.502123965108
0.445369372147
0.380133841073
0.309515384782
0.230311264333
0.281574715366
0.608114562553
0.502429525643
0.275180929406
0.157637930683
0.117519156206
0.104902664449
0.101180846343
0.100236688577
0.10004158573
0.100009417439
0.10000535085
0.100005021102
0.576465069157
0.542945392903
0.498631877957
0.444731103249
0.382957929472
0.316284740618
0.241765019304
0.243053860523
0.584164226725
0.548508899658
0.31387252821
0.173378562144
0.122825358015
0.10660133419
0.101659968862
0.100347385224
0.100061752334
0.100012096919
0.100005491594
0.100004929979
0.568209686306
0.536480333596
0.494459428769
0.443386986888
0.384980863398
0.321915467535
0.25125396005
0.224839176501
0.538754725552
0.589313615947
0.360096194801
0.193573308191
0.129616913025
0.108791697323
0.102298917185
0.100502188377
0.100091483564
0.100016299326
0.100005782726
0.100004845601
0.5592946362
0.529411935512
0.489711032047
0.441418933419
0.386193296188
0.326352958453
0.259067430098
0.217880849684
0.44833341915
0.611716057665
0.411677920513
0.219102775039
0.138308308275
0.111603848426
0.103142415111
0.100715678202
0.100134590231
0.100022743718
0.100006308772
0.100004775035
0.549858470978
0.521852380292
0.48447839537
0.438902647014
0.386695126058
0.329915684475
0.266189504483
0.216152524977
0.371237747615
0.612546604513
0.461792524592
0.248877099717
0.148948583361
0.115107440336
0.10422858035
0.10100359179
0.100195777016
0.100032399795
0.100007192055
0.100004729504
0.540014890018
0.513868830735
0.478781345232
0.435823583396
0.386475569168
0.332622413398
0.272327543455
0.217631211717
0.316752979282
0.596075803457
0.507856691805
0.282249833176
0.161602232178
0.119360282087
0.105592338253
0.10138267221
0.100280665914
0.100046531772
0.100008604266
0.100004726385
0.529839235111
0.505486004886
0.472594099734
0.432120974662
0.385457991723
0.334342851486
0.277110519413
0.220353786705
0.279542594403
0.565065846863
0.548363669393
0.319635208902
0.176727656455
0.124503693405
0.107283556882
0.101873554843
0.100396274436
0.100066796604
0.100010784191
0.100004792123
0.51937381304
0.496708872811
0.465888402251
0.427750973451
0.383600074006
0.335025510611
0.280477989593
0.222785596395
0.255733339763
0.523546306777
0.580665162523
0.361704963829
0.195175331482
0.130791810506
0.10937636037
0.102503131605
0.100551605335
0.100095384648
0.100014063372
0.100004966495
0.508643667145
0.487547194103
0.458667198681
0.422729326161
0.380951683788
0.334767863332
0.282638792595
0.22506347704
0.242166045928
0.469217105124
0.599569666339
0.407587534516
0.217729960123
0.138517602951
0.111956167155
0.103302684614
0.100757624416
0.100135108677
0.100018892943
0.100005308301
0.497673389713
0.478031352422
0.450977465593
0.417138280174
0.377651642243
0.333787827658
0.283994416889
0.227880088832
0.233906933808
0.413770482692
0.600714168714
0.453842238695
0.244527253302
0.14789666957
0.115095395296
0.104302769364
0.101026501149
0.100189381531
0.100025863211
0.100005902227
0.486494246989
0.468207657394
0.44288737954
0.411076678046
0.373834363098
0.332248238011
0.284736571663
0.230758141817
0.228655235519
0.370063098443
0.585864096254
0.497054899886
0.275450759453
0.159130094902
0.118860065751
0.105532417158
0.101371220103
0.100262194149
0.100035722408
0.100006867266
0.475144111417
0.458128631671
0.434464947291
0.404625947994
0.369582563566
0.330201969549
0.284846924624
0.233199937125
0.225336074714
0.337995732305
0.559157393598
0.534299560514
0.31053647955
0.172562851178
0.123345484411
0.107024947759
0.101806378531
0.100358253445
0.100049413551
0.100008368348
0.463663731444
0.447846888791
0.425772267492
0.397850422664
0.364944317663
0.327656039683
0.28429269675
0.234932102043
0.223360240013
0.315129112388
0.525725942036
0.562547570781
0.349679946049
0.188735935181
0.128700526209
0.108823177851
0.102349194903
0.100483203002
0.100068129229
0.100010632045
0.452091180811
0.437410398142
0.416863368133
0.390799158987
0.359940313685
0.324586687008
0.283021372161
0.235854158572
0.222401863948
0.299697086978
0.489468993926
0.578906326068
0.391990875085
0.208300052138
0.135125575237
0.110979065279
0.103019444516
0.100643687288
0.100093354855
0.100013964337
0.440459455998
0.426861997341
0.40778585542
0.383509641046
0.354575267165
0.320969438252
0.28102111928
0.236003579776
0.222167733617
0.288940860684
0.455269525868
0.581885542985
0.43530098511
0.231861504657
0.142861391538
0.113550874541
0.103838522075
0.100847197635
0.100126878116
0.100018766952
0.428802517574
0.416245202712
0.398584622609
0.376009054007
0.348843612918
0.31678863563
0.278318451049
0.235497746305
0.222430862243
0.281330394943
0.425874340819
0.57256321501
0.476419003203
0.259915524396
0.152209219374
0.116606857562
0.104829306462
0.101101939719
0.100170782468
0.100025551443
0.417169083661
0.405612505799
0.389302580816
0.368310781311
0.342727292085
0.312027450853
0.274944034963
0.234486167589
0.22308680725
0.276420526442
0.402914727615
0.554050478774
0.511785761061
0.292770123928
0.163580983574
0.120237438194
0.106017545968
0.101416901506
0.100227450866
0.100034952595
0.405631676735
0.395025675837
0.379974476907
0.360410153672
0.336196855589
0.306672721283
0.270978026022
0.23354097213
0.224112889066
0.273633185323
0.386152720683
0.530393793051
0.538114790358
0.330202360856
0.177530107543
0.124568220995
0.107433407912
0.101801923711
0.100299565921
0.100047743051
0.394269497993
0.384534284624
0.370606683567
0.35227066334
0.329198372939
0.300692403598
0.266469528131
0.232910941581
0.225806505652
0.272502051387
0.373747009895
0.506333349632
0.553368795718
0.371054623986
0.194793557803
0.129780879639
0.109113918053
0.102267762151
0.100390099039
0.100064852393
0.3831200955
0.374135015028
0.361148714957
0.343806480278
0.321640970808
0.294021622867
0.261353708587
0.23188799151
0.228025606373
0.272694058261
0.364512167782
0.48486686854
0.557429794979
0.413045546952
0.216343503892
0.136148664344
0.111107362521
0.102826264817
0.100502327179
0.100087407487
0.372127039468
0.363736584081
0.351477353851
0.334883434689
0.313416167982
0.286620037551
0.25568627342
0.230511793118
0.230701463731
0.274020728165
0.35787416201
0.46745151076
0.55175240809
0.45263664756
0.24315147191
0.144045633477
0.113473192449
0.103489607458
0.100639783177
0.100116802056
0.361114694951
0.353150094688
0.341402501477
0.325337974568
0.304428186651
0.278508168376
0.249663048651
0.22925200102
0.233938202661
0.276377537227
0.353441903932
0.453427001757
0.539960300485
0.485692385462
0.275662627046
0.153946224225
0.116281213389
0.104269044321
0.100806250392
0.100154834416
0.349803224622
0.342111735384
0.33069719443
0.31501324521
0.294635755278
0.26982703947
0.243773480609
0.22863904924
0.23791870508
0.279731899213
0.350907337555
0.44214310161
0.525946126621
0.50942822976
0.313373072335
0.166472039529
0.11962078048
0.105175115171
0.101006144991
0.100203963551
0.337848301301
0.330318410322
0.319126182494
0.303780431553
0.284085735589
0.260995892604
0.239521470942
0.22924505086
0.242754788999
0.283997278875
0.349966294372
0.433224796359
0.512620255922
0.522867102866
0.354290884696
0.18238674097
0.123608520383
0.106217858578
0.10124527833
0.100267707431
0.324870516624
0.317450772878
0.306459457981
0.291528140324
0.272791581119
0.251995985943
0.235521335295
0.231157821333
0.248487230995
0.289087844001
0.350365592391
0.426404651654
0.500852147997
0.527160308617
0.39475012554
0.202519849976
0.128403261852
0.107408024894
0.101532102638
0.100351264394
0.310538207762
0.303267361303
0.292600745749
0.278401712275
0.261366865916
0.244537682575
0.232965821076
0.234628339151
0.255150034381
0.294916902838
0.351879843836
0.421371229
0.490623997169
0.525206159014
0.431707607651
0.227969717792
0.134267037768
0.108762638393
0.101879766311
0.100462337153
0.29466580597
0.28769625612
0.277656299975
0.264774353696
0.250531408472
0.238256367095
0.232614151326
0.239798219999
0.262713084098
0.301358871432
0.35424973349
0.41773197647
0.481742750674
0.520236602255
0.461460052178
0.25960309683
0.141613841176
0.110305752476
0.102307812449
0.100614417043
0.277711190357
0.271360432516
0.262556757448
0.252142974953
0.241766326853
0.234409044475
0.234661430888
0.246044580787
0.270113940216
0.306972782021
0.355728749014
0.41368267127
0.472994904474
0.513817284373
0.482288188085
0.297020952165
0.150392061631
0.111972863746
0.102830165115
0.100828491031
0.100005716408
0.100005865637
0.100006109243
0.100006102317
0.10000642942
0.100006430914
0.100006647375
0.100006675182
0.100006752176
0.100006786953
0.100006776041
0.10000680623
0.100006759232
0.100006782648
0.100006724557
0.100006742109
0.100006681042
0.100006694034
0.100006632514
0.100006642079
0.100006581209
0.100006588272
0.100006528419
0.100006533691
0.100006474681
0.100006478675
0.100006420091
0.100006423158
0.100006364551
0.100006366929
0.100006307894
0.100006309747
0.100006249931
0.100006251371
0.100006190465
0.100006191575
0.100006129312
0.100006130147
0.100006066294
0.100006066903
0.100006001237
0.100006001669
0.100005933964
0.100005934262
0.100005864307
0.100005864498
0.100005792108
0.100005792214
0.100005717227
0.100005717257
0.100005639527
0.100005639492
0.10000555886
0.100005558774
0.100005475076
0.100005474935
0.100005388041
0.100005387817
0.100005297667
0.100005297293
0.100005203938
0.100005203273
0.100005106946
0.100005105727
0.100005006978
0.100005004728
0.100004904651
0.100004900533
0.10000480113
0.100004793711
0.100004698482
0.100004685351
0.100004600241
0.100004577439
0.100004512285
0.100004473466
0.100004444149
0.100004379345
0.100004410946
0.100004304781
0.100004436159
0.100004265312
0.100004555491
0.100004285322
0.100004822033
0.10000440225
0.100005313292
0.100004672335
0.100006140598
0.100005178321
0.100007460752
0.100006039317
0.10000948895
0.100007422517
0.100012512377
0.100009556391
0.100016904839
0.100012745619
0.100023144572
0.100017389883
0.100031838616
0.100024009892
0.100043764311
0.100033289379
0.10005993756
0.100046142102
0.10008174402
0.100063842303
0.100111144277
0.100088214506
0.100150886098
0.100121769766
0.100205071784
0.10016829526
0.100279401333
0.100232790495
0.100383519891
0.10032273035
0.100562081503
0.100498674949
)
;

boundaryField
{
    inletfuel
    {
        type            calculated;
        value           nonuniform List<scalar> 3(3.53076372467e-10 3.64160397304e-10 3.33123875439e-10);
    }
    inletair
    {
        type            calculated;
        value           nonuniform List<scalar> 
20
(
0.100006892673
0.1000068188
0.100006830672
0.100006847978
0.100006861244
0.100006870314
0.100006875445
0.100006876755
0.100006874557
0.100006869283
0.100006861357
0.100006851067
0.100006838477
0.100006823331
0.100006804924
0.10000678192
0.100006751878
0.100006711737
0.100006650178
0.10000663766
)
;
    }
    outlet
    {
        type            calculated;
        value           nonuniform List<scalar> 
26
(
0.283366011114
0.282933331545
0.281986996871
0.280663366899
0.277711190357
0.271360432516
0.262556757448
0.252142974953
0.241766326853
0.234409044475
0.234661430888
0.246044580787
0.270113940216
0.306972782021
0.355728749014
0.41368267127
0.472994904474
0.513817284373
0.482288188085
0.297020952165
0.150392061631
0.111972863746
0.102830165115
0.100828491031
0.100562081503
0.100498674949
)
;
    }
    axis
    {
        type            empty;
    }
    leftside
    {
        type            calculated;
        value           nonuniform List<scalar> 
65
(
0.100005716408
0.100005865637
0.10000663766
0.100006538952
0.100006456545
0.100005865637
0.100006102317
0.100006430914
0.100006675182
0.100006786953
0.10000680623
0.100006782648
0.100006742109
0.100006694034
0.100006642079
0.100006588272
0.100006533691
0.100006478675
0.100006423158
0.100006366929
0.100006309747
0.100006251371
0.100006191575
0.100006130147
0.100006066903
0.100006001669
0.100005934262
0.100005864498
0.100005792214
0.100005717257
0.100005639492
0.100005558774
0.100005474935
0.100005387817
0.100005297293
0.100005203273
0.100005105727
0.100005004728
0.100004900533
0.100004793711
0.100004685351
0.100004577439
0.100004473466
0.100004379345
0.100004304781
0.100004265312
0.100004285322
0.10000440225
0.100004672335
0.100005178321
0.100006039317
0.100007422517
0.100009556391
0.100012745619
0.100017389883
0.100024009892
0.100033289379
0.100046142102
0.100063842303
0.100088214506
0.100121769766
0.10016829526
0.100232790495
0.10032273035
0.100498674949
)
;
    }
    burnerwall
    {
        type            calculated;
        value           nonuniform List<scalar> 7(3.33123875439e-10 1.43952573652e-07 3.51016014101e-05 0.100006892673 0.100005952969 0.0999331578474 0.0593932986984);
    }
    front
    {
        type            wedge;
    }
    back
    {
        type            wedge;
    }
}


// ************************************************************************* //
