/*--------------------------------*- C++ -*----------------------------------*\
  =========                 |
  \\      /  F ield         | OpenFOAM: The Open Source CFD Toolbox
   \\    /   O peration     | Website:  https://openfoam.org
    \\  /    A nd           | Version:  dev
     \\/     M anipulation  |
\*---------------------------------------------------------------------------*/
FoamFile
{
    version     2.0;
    format      ascii;
    class       volScalarField;
    location    "0.3";
    object      alphat;
}
// * * * * * * * * * * * * * * * * * * * * * * * * * * * * * * * * * * * * * //

dimensions      [1 -1 -1 0 0 0 0];

internalField   nonuniform List<scalar> 
1629
(
0.000422805704421
0.000274438851265
8.8807929098e-05
0.000328299282272
0.000230366840776
0.000101103437284
0.000295629420479
0.000208635857719
0.000108502731188
0.000268673938122
0.000191912143305
0.00015699774732
0.00024600063087
0.000189363162256
0.000229660663707
0.000232393659696
0.000208465102831
0.000309041727535
0.000233446650497
0.000250209845818
0.000385815709847
0.000254134552255
0.000308980147645
0.000446839439726
0.000295957746919
0.000374547336612
0.000489988998097
0.000355189171443
0.00043814748938
0.00052272181687
0.000422951536553
0.000494272848001
0.000550540559476
0.00048830975076
0.000540156431753
0.000573851790588
0.000542432997148
0.000574540517656
0.00059073821488
0.000580796522541
0.000597098937141
0.000599988746165
0.000602757077984
0.000608107470751
0.000601278957107
0.000610136029388
0.000608697094928
0.000595476492253
0.000606073855918
0.00060092324846
0.000584267915092
0.000594007649022
0.000587250908105
0.000569548065704
0.000576955024024
0.00056990534533
0.000552817229394
0.000557208350121
0.000550577563345
0.000535030451575
0.000536390915513
0.000530485177094
0.000516843447634
0.000515645232997
0.000510575168904
0.000498931201928
0.000495762165434
0.000491562407842
0.000481910498899
0.000477213117882
0.000473849138863
0.000466069204462
0.000460243137653
0.000457610310843
0.000451455855376
0.00044497927224
0.000442950783526
0.000438140556714
0.000431452956332
0.000429921401395
0.000426220220785
0.000419591091468
0.000418463681545
0.000415670053748
0.000409229252386
0.000408411146404
0.000406322476957
0.000400152177736
0.000399546198855
0.000397956155025
0.000392153777762
0.000391681268084
0.000390421672964
0.000385045448475
0.000384659007047
0.000383626176715
0.000378635522694
0.000378305870894
0.00037743297965
0.000372746332024
0.000372449053089
0.000371678669449
0.000367254612711
0.000366972113556
0.000366260859595
0.000362088637502
0.000361814608932
0.000361143384099
0.000357200840212
0.000356935671596
0.000356300488738
0.000352547629042
0.000352291645056
0.000351689398861
0.000348073346689
0.000347823746422
0.000347244255459
0.000343714133624
0.00034346752618
0.000342902414937
0.000339420548419
0.000339177863035
0.000338627329174
0.000335168412914
0.000334932493683
0.000334401313667
0.000330960303068
0.000330734318965
0.000330228280208
0.000326821026175
0.000326607418088
0.000326130989413
0.000322787768246
0.000322588274202
0.000322144632793
0.000318902061654
0.000318718308898
0.00031831059821
0.000315207316416
0.000315041189123
0.00031467325196
0.000311756740027
0.000311610390576
0.000311286766644
0.000308625425608
0.000308501287191
0.000308227158478
0.000305924108507
0.000305824837219
0.000305605890732
0.000303809750038
0.000303737970874
0.000303579806116
0.000302486344865
0.000302443981624
0.000302350622013
0.000302185385857
0.000302172686148
0.000302144459816
0.000303119693411
0.000303134407036
0.00030316619779
0.000305426245671
0.000305463509564
0.000305544553051
0.00030913598873
0.000309189107829
0.000309304740438
0.000314196196888
0.000314258139376
0.000314393038485
0.000320546503794
0.000320611604321
0.000320753522156
0.00032820808719
0.000328272970456
0.000328414718916
0.000337344696649
0.000337408145747
0.000337547275038
0.000348298691515
0.000348361082387
0.00034849877905
0.000361693644955
0.000361757158812
0.000361898662615
0.000378524613783
0.000378577682662
0.000378698554841
0.000353623860765
0.00031170208714
0.000414583669416
0.00047773806346
0.000496035224321
0.000501801611261
0.000511231900716
0.000527651306833
0.000544883244135
0.000557012936594
0.000562649283273
0.000561928942711
0.00055625285618
0.000547030914118
0.000535613804892
0.000522886405165
0.000509234164793
0.000494930411129
0.000480554109244
0.00046676668486
0.000453812183448
0.000441643085819
0.000430331752246
0.000420065551136
0.000410878344212
0.000402609907003
0.000395038431419
0.000388066505599
0.000381686177515
0.000375806599491
0.000370274732205
0.000365006906365
0.000360000749282
0.000355252372839
0.000350720399898
0.000346333549386
0.000342033716754
0.000337796196378
0.000333610566177
0.000329482887561
0.000325434773678
0.000321500251143
0.0003177212052
0.000314143363784
0.000310822121389
0.000307834528355
0.000305292811537
0.000303353659944
0.00030221649606
0.000302102204857
0.000303208115075
0.000305655225049
0.000309463550433
0.000314578665176
0.000320949153557
0.000328610736764
0.000337740404103
0.000348692162512
0.000362100412647
0.000378876925834
2.53783893681e-05
0.000226808745537
0.000364359875317
0.000389701610498
0.000392883387818
0.000393061817355
0.000392975286345
0.00039291494892
0.000392885216655
0.00039287256092
0.000392868627719
0.000392869646059
0.000392874886739
0.000392885871502
0.000392906055979
0.000392944372576
0.000392996800899
0.000392957689024
0.000382475051784
0.000113187313088
2.41338617496e-05
0.00019641215028
0.000349679209324
0.000388799355436
0.000393631090905
0.00039338788873
0.000392993574878
0.000392800442403
0.000392717614828
0.000392684051818
0.000392672008323
0.000392669807686
0.000392673658935
0.000392684473886
0.000392706344678
0.000392752056367
0.000392814127133
0.000392634133801
0.000375824230617
0.00011494352858
2.97291762527e-05
0.000170267985923
0.000331070704365
0.000390451137769
0.000396060773358
0.000394381152864
0.000393296596487
0.000392844968282
0.000392662003214
0.000392585664481
0.000392553981824
0.00039254245387
0.000392542146621
0.000392552422777
0.000392577577539
0.000392634767904
0.000392718691029
0.000392458806148
0.000371950703637
0.000116155703432
6.09950534212e-05
3.38496123391e-05
0.000230346098372
0.000377156120137
0.000399805157422
0.000396601822186
0.000394081768949
0.000393081030048
0.00039269519442
0.000392535689993
0.000392466572833
0.000392437448039
0.00039242949072
0.000392438883662
0.000392470079197
0.000392545853548
0.000392675582465
0.000392360662143
0.000368031688168
0.000123231473744
5.3388067252e-05
1.01386600675e-05
0.000139936593068
0.000341340050099
0.000400394080996
0.000399715392257
0.000395405605725
0.000393520034617
0.000392801121967
0.000392511679056
0.000392387189801
0.000392333059368
0.000392314447308
0.000392322325392
0.000392361356948
0.000392459798149
0.000392659454317
0.000392281361154
0.00036381268819
0.000131004556061
0.000106818845308
8.0163322676e-06
7.5213906857e-05
0.000275521927228
0.00038486912746
0.000400994796421
0.000397049831269
0.000394175965375
0.000392989924903
0.000392515987033
0.000392315131335
0.000392227464059
0.000392194700689
0.000392200134062
0.000392248553562
0.000392373423422
0.000392666259852
0.000392170201655
0.000359232663553
0.000138068933683
0.000180304336061
1.37576985889e-05
1.42274209947e-05
8.40182238728e-05
0.000272246146289
0.000383168204143
0.000396971125346
0.000394868062173
0.000393251765591
0.00039255040907
0.000392251431068
0.000392120701888
0.000392069800681
0.000392071774448
0.000392131196874
0.000392286156066
0.00039269154889
0.000391990123615
0.000353972264972
0.000143921294451
0.000200786041831
7.60944275543e-06
6.0885758857e-06
2.26495718748e-05
0.000127732254662
0.000321478248753
0.000389692465173
0.00039494272244
0.000393526860803
0.000392612473181
0.000392197449741
0.000392013532913
0.000391939967253
0.000391937337212
0.000392009215123
0.000392197696452
0.000392725540818
0.000391725077498
0.00034792542602
0.000148527095298
0.000245877032016
2.26179020107e-05
6.49530884499e-06
1.82849112823e-05
9.23728703071e-05
0.000267160945481
0.000375330112723
0.000393732592136
0.000393722701825
0.00039269897158
0.000392155980006
0.000391907580258
0.000391805867289
0.000391797074229
0.00039188220087
0.000392107364085
0.000392754506685
0.000391367699972
0.000341257097396
0.000152084039218
0.000302602033257
4.70767924923e-05
8.3007840877e-06
1.70341521435e-05
7.78804604347e-05
0.000226947656835
0.000356039746927
0.000390820248328
0.000393751517461
0.000392812272261
0.000392133197412
0.00039180617897
0.000391669244239
0.000391652014774
0.000391750142983
0.000392015089666
0.000392766237659
0.000390908326941
0.000334216622525
0.000154884163506
0.000364291730611
8.23324604383e-05
1.21249906878e-05
1.16372546798e-05
5.34036000665e-05
0.000177967997786
0.000326931948432
0.000384884483515
0.000393403670735
0.000392945311078
0.000392137295732
0.000391714441634
0.000391533135983
0.000391504247508
0.000391613888553
0.000391921704107
0.000392752605284
0.000390332951398
0.000327023332931
0.000157179419783
0.000410496477072
0.000112168243735
9.10611898014e-06
7.15686121025e-06
2.52352024565e-05
0.000114049968542
0.000278529580637
0.000372424869606
0.00039202180178
0.00039302468113
0.000392170072592
0.000391638050576
0.000391401564647
0.000391356688927
0.0003914750329
0.000391828432545
0.000392709136306
0.000389625827417
0.000319838822941
0.000159147214846
0.000435540078689
0.000143064284921
1.47688028835e-05
7.98093335855e-06
1.58323083022e-05
7.53890241408e-05
0.000226125200793
0.000352098598313
0.000388667666462
0.000392872379247
0.000392215689689
0.000391580880336
0.000391278784008
0.000391212581303
0.000391335572823
0.000391736325832
0.000392633770219
0.000388772207088
0.000312773729149
0.000160909887859
0.000448877745262
0.000176673543959
2.61414757933e-05
1.10464188608e-05
1.24610453632e-05
5.50328657013e-05
0.000182675581498
0.00032602068057
0.000382654728456
0.000392254154684
0.000392240077667
0.000391543392698
0.000391168364427
0.00039107488854
0.00039119752409
0.000391645935193
0.000392525791709
0.000387760072223
0.000305900408943
0.000162555714473
0.000455537491478
0.000208161113823
4.02719251563e-05
1.51073436742e-05
1.00829515282e-05
3.68433341188e-05
0.000140055022637
0.000293079819359
0.000373032758679
0.000390864049891
0.000392190454188
0.000391522179874
0.000391072677967
0.000390945851987
0.000391062609436
0.000391557205918
0.000392385033105
0.000386580877586
0.000299263610622
0.000164150490257
0.000459186130149
0.000240350564251
6.54953214407e-05
1.23777561431e-05
8.78456172885e-06
2.29411937941e-05
0.000100189887336
0.000253126550014
0.00035854518855
0.000388228327105
0.000391970921069
0.000391505929123
0.000390992429248
0.000390826882388
0.000390932136939
0.000391469544606
0.000392211301515
0.00038522956098
0.000292888596664
0.000165744029347
0.000460214999624
0.000266914525546
9.41668454627e-05
1.79205031721e-05
1.00285026608e-05
1.70103193614e-05
7.51641169808e-05
0.00021569267939
0.000339939821401
0.000383914240342
0.000391435961922
0.000391470106145
0.000390925940662
0.000390718719505
0.000390807107197
0.000391382026223
0.000392004040096
0.000383704178973
0.000286787248688
0.000167374836164
0.000459304953489
0.000289212622602
0.000125275602373
2.81526087196e-05
1.35013783953e-05
1.43863530422e-05
6.00998350582e-05
0.000184790036456
0.000318859075358
0.000377701492096
0.00039043382748
0.000391383474778
0.000390870814351
0.000390622279292
0.000390688596195
0.000391293710261
0.000391762224299
0.000382005465903
0.000280962524337
0.000169073637933
0.000456813755189
0.000308309998673
0.000157293811321
4.27953462513e-05
2.00703773975e-05
1.26833374767e-05
4.63146867284e-05
0.000154462576877
0.000294238064141
0.000369100215874
0.000388791458632
0.000391216989477
0.000390828149484
0.000390540381328
0.00039057840467
0.000391203987909
0.000391484420145
0.000380136419342
0.000275411576487
0.000170865812542
0.000452625308895
0.000323819572858
0.000185164159169
5.84066816904e-05
2.76795182755e-05
1.27553046349e-05
3.05811602662e-05
0.000116814155854
0.00026142707754
0.000356585202164
0.000386151792469
0.000390919318555
0.00039080024407
0.000390478058151
0.00039047939212
0.000391112765193
0.000391168899164
0.000378101922694
0.000270127881439
0.00017277292151
0.000446689762911
0.000335301704074
0.000208073139027
7.72962234725e-05
2.15315644635e-05
1.36204096063e-05
2.02492000493e-05
8.04524275176e-05
0.000220188251867
0.000338347306521
0.000381856606933
0.000390353625335
0.000390772953352
0.00039043810379
0.000390394403267
0.000391020137806
0.000390813643517
0.000375908342301
0.000265102663133
0.00017481366723
0.000439682495315
0.000343677605131
0.000227678521102
0.000103171710432
2.97213454269e-05
1.70708559626e-05
1.67954644596e-05
5.91378125227e-05
0.000182472389553
0.000315673658749
0.000375381513894
0.000389301628759
0.000390701760711
0.000390415447795
0.000390324312664
0.00039092568592
0.000390416207072
0.000373563096608
0.000260325849393
0.000177004509045
0.000432560322333
0.00035051252902
0.000246205488923
0.000130788697258
4.30460975623e-05
2.36540036803e-05
1.57708834019e-05
4.59025488763e-05
0.000150858226061
0.000290236601376
0.000366460810995
0.000387545944155
0.000390528647039
0.000390399898035
0.00039026798641
0.000390828236544
0.000389973617681
0.000371074250206
0.000255786705219
0.000179360792305
0.000425565636316
0.000355990924973
0.000263071561957
0.000155761991532
5.74351569151e-05
3.1614319477e-05
1.63396277113e-05
3.35545231946e-05
0.000118189342294
0.000259846130052
0.000354286042383
0.000384819395953
0.000390193332505
0.000390382492335
0.000390224361861
0.000390726450009
0.000389482544656
0.000368450238771
0.000251474378042
0.000181896043845
0.000418480325445
0.000359581044166
0.000276883656343
0.000176952941532
7.23789791858e-05
2.73843855395e-05
1.76093871628e-05
2.46808960496e-05
8.72556998507e-05
0.000224269202242
0.000337841664874
0.000380693663519
0.000389591209803
0.000390346162769
0.000390191343904
0.00039061884304
0.00038893949101
0.000365699675875
0.000247378370249
0.000184620904806
0.000411395187667
0.000361501003287
0.000287927905829
0.000195543187738
9.26969120907e-05
3.43370548194e-05
2.10309736508e-05
2.09611648844e-05
6.6679539344e-05
0.000190944351794
0.000318108956057
0.000374836782203
0.000388557303105
0.00039025000014
0.000390160971824
0.000390502593726
0.000388340702107
0.000362831154991
0.000243488900076
0.000187543326126
0.000404695259971
0.000362571326918
0.000297466950311
0.000212696198766
0.000115569018091
4.5529900487e-05
2.71821528548e-05
1.98124203703e-05
5.35400909255e-05
0.000163001228932
0.000296717750938
0.000367166708914
0.000386931978485
0.000390041815423
0.000390121073768
0.000390373898688
0.000387682327578
0.000359853186607
0.000239797218404
0.00019066881402
0.000398524105562
0.000363125821309
0.000305837644767
0.000228643791045
0.000138057120444
5.96015213717e-05
3.66677026245e-05
2.03388003453e-05
4.30454637971e-05
0.000136936554559
0.000273104056963
0.000357389722536
0.000384566196803
0.000389681981559
0.00039006506724
0.000390231546942
0.000386961640052
0.000356774549489
0.000236295958299
0.000194000937717
0.000392722443052
0.000363012769634
0.000312730020157
0.000242661086393
0.000157464759817
7.32022411865e-05
4.6862887104e-05
2.32842116514e-05
3.33968430717e-05
0.000108447689042
0.000244627370087
0.000344572203629
0.000381210009651
0.000389128326954
0.000389993298044
0.000390078782867
0.000386178211317
0.000353604633811
0.000232979375411
0.000197544292959
0.000387049629009
0.000361972187272
0.000317735249259
0.000254068412181
0.000173995413746
8.73419313791e-05
4.22218943395e-05
2.6902716109e-05
2.74289755758e-05
8.19161809462e-05
0.000211692983727
0.00032786889178
0.000376467262546
0.000388282235857
0.000389894025454
0.000389917487073
0.000385332565374
0.000350352678074
0.000229843354129
0.000201302793514
0.000381501668953
0.000360190047933
0.000321224314759
0.000263495043273
0.00018909326082
0.000105233479378
5.00047120236e-05
3.28013497813e-05
2.56590761159e-05
6.39880158501e-05
0.000180449712916
0.00030812069843
0.000370049718698
0.000386987261135
0.000389727272749
0.000389740147054
0.000384422828742
0.00034702591992
0.000226885008163
0.000205280227788
0.000376237605834
0.000358117094693
0.000323933246185
0.000271917037984
0.000203338446426
0.000124393388636
6.11987256183e-05
4.14877994813e-05
2.62086789648e-05
5.18385112599e-05
0.000152669876345
0.00028622378869
0.000361798361447
0.000385090207699
0.000389441455141
0.000389532986124
0.000383444277477
0.00034362885339
0.000224102560766
0.000209480721486
0.000371247576352
0.000355836679187
0.000325922225133
0.000279199918566
0.000216163950421
0.000141648692499
7.32229560665e-05
5.11665128576e-05
2.89204222744e-05
4.2216980482e-05
0.000125583870529
0.000261266251241
0.000351290907671
0.000382429017276
0.000388992030837
0.000389285852501
0.000382392998871
0.000340164837924
0.000221496010674
0.000213909004882
0.000366387969653
0.000353182641478
0.000326919854507
0.00028488937813
0.000226907106228
0.000156510802379
8.52286291218e-05
5.33142293499e-05
3.31938211854e-05
3.58122844756e-05
0.000100392022422
0.000233212513163
0.000338054856025
0.000378785396629
0.000388321224772
0.000388988412178
0.000381266516921
0.000336637141598
0.000219067876841
0.0002185707077
0.000361609578324
0.000350161582323
0.000327000538208
0.000289176145035
0.00023605193101
0.000170501297632
9.83382385979e-05
6.04252693726e-05
3.96180708974e-05
3.32193896516e-05
8.09699832111e-05
0.000205057778054
0.000322359341702
0.000373968016612
0.000387338510915
0.000388615893689
0.000380058258907
0.000333046902111
0.000216822969679
0.000223472491085
0.000356982586022
0.000346979911614
0.000326546687416
0.00029263166869
0.000244245402107
0.0001834650481
0.000113918779362
6.96153332498e-05
4.87005882099e-05
3.34369436394e-05
6.69110620505e-05
0.000178828050587
0.000304791274193
0.000367864366759
0.000385943085729
0.000388131399419
0.000378755929637
0.000329392234894
0.000214768107297
0.000228621542869
0.000352549717993
0.00034377183399
0.000325773247027
0.000295487119693
0.000251609893839
0.000195491908128
0.000129836494289
7.99548862487e-05
6.02460265202e-05
3.61390510442e-05
5.63821890504e-05
0.00015401109985
0.000285262647582
0.000360295697974
0.000384037792271
0.000387502380731
0.000377349349042
0.000325672696264
0.000212913208907
0.000234024418032
0.000348273750604
0.000340526688795
0.000324662597993
0.000297654174321
0.000257927544505
0.00020621842483
0.000144463769561
9.05966895181e-05
7.21175917008e-05
4.16176527218e-05
4.8581541318e-05
0.000129622952797
0.000263075183375
0.000350912762488
0.000381506738463
0.000386703398301
0.000375836172932
0.000321893698409
0.000211272766282
0.000239686830502
0.000344079838612
0.000337173888592
0.000323128153764
0.000299006197505
0.000263036761028
0.000215481501194
0.00015755595126
0.000101239580055
7.94823702235e-05
4.95858455457e-05
4.42067101249e-05
0.000107024444061
0.000238289441745
0.000339383289106
0.000378200522093
0.000385697657232
0.00037421388517
0.000318062611872
0.000209864870337
0.000245614856506
0.00033992751704
0.000333702465824
0.000321200061707
0.000299627313961
0.00026710991845
0.000223595377652
0.000169793039429
0.000112504284583
8.83676833661e-05
6.02271848104e-05
4.35840819335e-05
8.86836865585e-05
0.00021249061367
0.000325702698546
0.000373971330702
0.000384424728505
0.00037246735803
0.000314180507469
0.000208708454841
0.0002518158885
0.000335815718102
0.000330168352819
0.000319012394038
0.000299742136288
0.000270459580183
0.000230875394007
0.00018115295786
0.000124504628747
9.80261601037e-05
7.36607153043e-05
4.63660903765e-05
7.49354460422e-05
0.000187085072581
0.000310010846303
0.000368686865533
0.000382811746828
0.000370570589544
0.000310242064565
0.000207822190456
0.000258296495186
0.000331752340132
0.000326622614694
0.000316670927048
0.000299504340221
0.000273253161552
0.000237420085793
0.000191585967658
0.000136784681114
0.000107908002177
8.93223095849e-05
5.26062035475e-05
6.52069720171e-05
0.000162539195845
0.000292229019111
0.000362177294047
0.00038078395502
0.000368499493361
0.000306245119266
0.00020722672979
0.000265058904163
0.000327750027161
0.000323097316262
0.000314232266104
0.000298985076346
0.000275551996553
0.000243256957357
0.000201142175324
0.000148649890779
0.000118034053956
0.000105640342862
6.2651969358e-05
5.92714133409e-05
0.000139096721592
0.00027206439051
0.000354194031516
0.000378259084592
0.000366237041644
0.000302196351733
0.000206946536359
0.000272099973091
0.000323829575018
0.000319619130133
0.000311735309751
0.000298234542629
0.000277411654619
0.000248440758614
0.000209868302183
0.000159962023485
0.00012830429232
0.0001197057004
7.65337074867e-05
5.74290322531e-05
0.000117716947453
0.000249447809077
0.000344448816651
0.000375137128748
0.000363764676005
0.000298105624456
0.000207008947908
0.000279414836467
0.000320024099503
0.000316227853823
0.000309237859442
0.000297336579301
0.000278942302813
0.00025309431039
0.000217892869043
0.000171005035754
0.000138911179768
0.000132214094999
9.39640277921e-05
6.00790094604e-05
0.000100009397963
0.000225050167914
0.000332726285078
0.00037130276893
0.000361051554737
0.000293976265138
0.000207441120178
0.000287000548859
0.000316378116703
0.000312981392774
0.000306825494666
0.000296414461845
0.000280300646228
0.000257384722011
0.000225373795779
0.000181708910209
0.000149931308682
0.000144468938462
0.000114457158879
6.74765028685e-05
8.69420760238e-05
0.000200003187644
0.000318905149306
0.000366632724794
0.00035805560556
0.000289804294635
0.000208267868444
0.000294854010086
0.000312941483352
0.000309944063217
0.000304589079396
0.000295591017137
0.000281628910762
0.000261448318647
0.000232430360186
0.00019199927402
0.000161297164945
0.000156688240513
0.000136976101915
8.00410191121e-05
7.87732131464e-05
0.000175379297033
0.000302864193175
0.000360987009258
0.000354732036609
0.000285585671986
0.000209508873201
0.000302962591485
0.0003097730231
0.000307185801815
0.000302617711708
0.000294974688499
0.000283038180564
0.000265380366989
0.000239135484354
0.000201869787372
0.000172935874765
0.000169198716498
0.000159990122707
9.82413571837e-05
7.57141608428e-05
0.000152191824
0.000284455629564
0.000354192042124
0.000351036343805
0.000281319685602
0.000211171919803
0.000311290362858
0.000306952454077
0.000304794302107
0.000301011753335
0.000294675265175
0.000284632433321
0.000269274777228
0.000245581369806
0.000211371101148
0.000184817729185
0.000182277191315
0.000181801744325
0.000122138482334
7.82448832206e-05
0.000131626632313
0.000263637351065
0.000346035072292
0.000346918254218
0.000277001786807
0.00021323976797
0.000319762494095
0.000304593852228
0.000302888426216
0.000299895838112
0.000294816350019
0.000286522308644
0.000273234975674
0.000251872613937
0.00022058544895
0.000196967614646
0.000196164786444
0.000202014844276
0.000150964790112
8.7104498064e-05
0.000115058104237
0.000240710121994
0.000336277872325
0.000342313168902
0.000272610007249
0.00021565039461
0.000328244138369
0.000302853471837
0.000301622702127
0.000299418671187
0.000295531153456
0.000288820823207
0.000277370555846
0.000258136093007
0.000229690554505
0.000209501387367
0.000210980281429
0.000221290392553
0.000183083792588
0.000103100200798
0.000103716924185
0.000216444759004
0.000324670360133
0.000337136707308
0.000268095140273
0.00021827876239
0.000336522570872
0.000301925357369
0.000301177987355
0.000299739366066
0.000296949634115
0.000291637178695
0.000281798016093
0.000264525907304
0.00023893456733
0.000222610445758
0.000226966206823
0.000240532996634
0.000216245476309
0.000126901306339
9.85774008561e-05
0.000192050901071
0.00031095724312
0.000331281557033
0.00026337800164
0.000220929926701
0.000344305555141
0.000302018522748
0.000301737315971
0.000301005874167
0.000299185231634
0.000295071467767
0.000286639071972
0.0002712439498
0.000248916725917
0.000236498163503
0.000244065189124
0.000260361173681
0.000248378794372
0.000158703421226
0.000100650885099
0.000169149529099
0.000294919143972
0.000324616818259
0.000258361617599
0.000223369917831
0.000351272358265
0.000303313582091
0.000303447542068
0.000303325136956
0.000302312509003
0.000299188436287
0.000291973527568
0.000278422509374
0.000259942481836
0.000251549282611
0.000262355940459
0.000281340967677
0.0002790191118
0.000197811431242
0.000111278360671
0.000149638674879
0.000276448366852
0.000316988401091
0.000252949957792
0.00022537721441
0.00035714706804
0.000305914750643
0.00030638112022
0.000306736042431
0.000306347832146
0.000304002758788
0.000297833940767
0.000286098620603
0.00027167559522
0.000267857940692
0.000282109696828
0.000303916371198
0.00030875819076
0.000242304014137
0.000132165671933
0.000135449637727
0.000255628308502
0.000308221061533
0.000247093639142
0.000226842405378
0.000361821054801
0.000309831083885
0.000310528658078
0.000311214911475
0.000311269215682
0.000309521241462
0.000304290660764
0.000294430195367
0.000284349824679
0.000285713481498
0.000303734632271
0.000328446889609
0.000338518845313
0.00028913779253
0.000165025813976
0.00012862970545
0.000233008483078
0.000298129832854
0.000240837000137
0.000227868043466
0.000365458795197
0.000315007209874
0.00031583737511
0.000316723681806
0.000317076527945
0.000315816033948
0.000311529791442
0.000303760259464
0.00029864273287
0.00030564971689
0.00032767574637
0.000355274779684
0.000369710733101
0.000335952369844
0.000210441980251
0.000131333892923
0.000209896346085
0.000286541572983
0.000234377173433
0.000228877439531
0.000368598415381
0.000321402457145
0.000322293909561
0.000323297271394
0.00032388348731
0.000323120715563
0.000319961016384
0.000314815288772
0.000315385794952
0.000328286788588
0.000354371605891
0.000384774885956
0.000403143472374
0.00038151883823
0.00026645532159
0.000145468776728
0.000188122313378
0.000273253105631
0.000228071214282
0.000230610484441
0.000372103048872
0.000329069145673
0.000329988719007
0.000331086325071
0.000331932169676
0.000331828247417
0.000330315365542
0.000329484649101
0.000335496593883
0.000354197702222
0.000384233001072
0.000417283835524
0.000439041014349
0.000425558168714
0.000328264096641
0.000172559344458
0.000169790160651
0.000257964411391
0.000222431883194
0.000234121473614
0.000377107329953
0.000338198730333
0.000339147022307
0.00034036755078
0.000341568451933
0.000342353746021
0.00034295828748
0.000347203411753
0.000359501943559
0.000383844608449
0.000417565964256
0.000452933689432
0.000477313743854
0.000469534248221
0.000390665915227
0.000213067451359
0.000157064188868
0.000240170927235
0.000218063610346
0.00024070569549
0.00038486008637
0.000349161119112
0.000350175687947
0.000351617880484
0.000353414991808
0.000355675341736
0.000359937185065
0.000369393020681
0.000388120006402
0.000417599958262
0.00045447671296
0.000491653233507
0.000517915510865
0.000514527546486
0.000449414348952
0.000266080098011
0.000151738842659
0.000219047065955
0.000215598503419
0.000251817503644
0.000396556224503
0.000362602807477
0.000363756753031
0.000365590362851
0.000368362741725
0.000372956493457
0.000381678525342
0.000396849180569
0.000421327956824
0.000454802286042
0.000493822416328
0.000532051827771
0.000559616921732
0.000559911328261
0.000503968419382
0.000328411396796
0.000156157473512
0.000194026418987
0.000215548049632
0.0002689135594
0.00041319411607
0.000379349506697
0.000380555511037
0.000382815182422
0.000387039591428
0.000394585746385
0.000407135723649
0.000427194601022
0.000455951952011
0.000492507466808
0.000533815395422
0.000574363503776
0.000605306054047
0.000611198988642
0.000563470765089
0.000401102373851
0.000174007948202
0.000166514474599
0.000217763193864
0.000292802548103
0.00043484700851
7.50123677072e-05
4.26946136177e-05
9.82519525686e-05
6.09558095339e-05
0.000115446232145
7.85432000224e-05
0.000125877586958
8.36336490163e-05
0.000131361242837
8.39526600159e-05
0.000133750599624
8.19487135524e-05
0.000134456410451
7.87056995252e-05
0.000134261099831
7.48382745032e-05
0.000133537771647
7.07056520127e-05
0.000132476726328
6.65242577411e-05
0.000131202523838
6.24285203544e-05
0.000129812922887
5.85037232955e-05
0.000128389079793
5.48049829347e-05
0.000126999574534
5.13685263099e-05
0.00012570282052
4.82182851962e-05
0.000124548085707
4.53697117795e-05
0.00012357557319
4.28319905009e-05
0.000122816072174
4.06093297284e-05
0.000122290308805
3.87022083552e-05
0.000121989615592
3.71137046972e-05
0.000121911951207
3.58304832279e-05
0.000122070001038
3.4826492228e-05
0.000122467709995
3.40786365143e-05
0.000123101303261
3.35655294283e-05
0.000123957346934
3.32683091378e-05
0.000124975173027
3.31790945324e-05
0.000126125907511
3.32654379557e-05
0.000127383236709
3.34943670349e-05
0.000128725248103
3.38344492573e-05
0.000130135675052
3.42574894487e-05
0.000131604421634
3.47398861741e-05
0.000133127225275
3.52633164806e-05
0.000134704764908
3.58148694436e-05
0.000136341792215
3.6386922179e-05
0.000138046014106
3.69764480425e-05
0.00013982573543
3.75832999158e-05
0.000141687261719
3.82083425082e-05
0.000143634791679
3.88530719316e-05
0.000145672932066
3.95205620029e-05
0.000147807625242
4.02153861973e-05
0.00015004314903
4.09414851701e-05
0.000152379284766
4.17001752403e-05
0.00015481337616
4.24907501159e-05
0.00015734497088
4.33125401898e-05
0.000159974662851
4.41649237462e-05
0.000162694445194
4.50442464553e-05
0.000165475794724
4.59405058772e-05
0.000168263828781
4.68370545099e-05
0.000170979671358
4.77134714073e-05
0.000173533197038
4.85507629378e-05
0.000175841966979
4.93363317446e-05
0.000177859973771
5.00701515442e-05
0.000179603820136
5.07687601234e-05
0.000181181418011
5.14691163766e-05
0.000182793825338
5.22274507137e-05
0.000184720386619
5.31153659345e-05
0.000187295399632
5.42099975806e-05
0.000190836622459
5.55776638031e-05
0.000195628013986
5.72637878447e-05
0.000201237555487
5.90829251345e-05
)
;

boundaryField
{
    inletfuel
    {
        type            calculated;