/*--------------------------------*- C++ -*----------------------------------*\
  =========                 |
  \\      /  F ield         | OpenFOAM: The Open Source CFD Toolbox
   \\    /   O peration     | Website:  https://openfoam.org
    \\  /    A nd           | Version:  dev
     \\/     M anipulation  |
\*---------------------------------------------------------------------------*/
FoamFile
{
    version     2.0;
    format      ascii;
    class       volScalarField;
    location    "0.3";
    object      C2H4;
}
// * * * * * * * * * * * * * * * * * * * * * * * * * * * * * * * * * * * * * //

dimensions      [0 0 0 0 0 0 0];

internalField   nonuniform List<scalar> 
1629
(
1.35251890137e-20
1.26380060408e-20
9.98602376815e-21
1.89192232966e-18
2.51029345229e-18
4.18727572368e-18
1.4487614536e-16
2.90437848853e-16
1.01011675744e-15
8.40383476758e-15
2.47438391224e-14
1.61558013661e-13
3.75192590683e-13
1.16863349261e-12
6.22920400261e-12
1.66575674814e-11
5.59829652965e-11
2.65819256515e-10
6.28893949001e-10
2.12192160967e-09
8.86925738731e-09
1.81174073313e-08
5.84676432467e-08
2.24835940396e-07
3.23811231492e-07
9.89700889035e-07
3.75958555404e-06
1.50481192541e-06
3.61027072636e-06
1.05556251881e-05
4.24827859115e-06
8.2526042136e-06
1.93426970242e-05
8.99728718863e-06
1.47674013531e-05
2.89163075526e-05
1.61018988834e-05
2.33785900834e-05
4.01250367815e-05
2.94330155632e-05
4.11233136456e-05
7.08489589287e-05
6.24858291323e-05
8.82342160728e-05
0.00015916331282
0.000133082639272
0.000182818703093
0.000315293259398
0.000253617747626
0.000331093463725
0.000526002265444
0.000426101752226
0.00052779352282
0.000770530005912
0.0006454527378
0.000764435364919
0.00103753253721
0.000907447340214
0.00103846034395
0.00133260841323
0.00121468066873
0.00135656911007
0.00167291783257
0.00157527059451
0.0017292101929
0.00207206953879
0.00199622154804
0.00216222301038
0.00253068063698
0.00247724954285
0.00265221286297
0.00303764677415
0.00300999013605
0.00318848728449
0.00357819455464
0.00358415643523
0.00376108196658
0.00414469833571
0.00419539906018
0.00436818999606
0.00474175745027
0.00484702612989
0.00501559565089
0.00538019665098
0.00554442851197
0.00570931110614
0.00606641013537
0.00628774042713
0.00644835866543
0.00679634740157
0.00707022764045
0.00722479569633
0.00755946725967
0.00788350002567
0.00803030540471
0.00834800324788
0.00872281310682
0.0088612525713
0.0091609920151
0.0095880466084
0.00971858916944
0.0100016477947
0.0104806680739
0.0106040311765
0.010871968794
0.0114000481604
0.0115165328615
0.0117698315998
0.0123418417133
0.012451282843
0.0126894234806
0.0132995169643
0.0134016770648
0.013624083473
0.0142673417511
0.0143622864209
0.0145691189631
0.0152426531518
0.015330838351
0.0155231171682
0.0162257032841
0.0163078004027
0.01648698026
0.0172166946939
0.0172932796712
0.0174605664169
0.0182121215745
0.0182834225793
0.0184392377829
0.0192030261393
0.0192688747513
0.0194127766467
0.0201767949769
0.0202368040842
0.0203678989999
0.0211214647185
0.0211752887109
0.021292801048
0.0220295150608
0.0220769870222
0.0221805414736
0.0228988047597
0.0229398607891
0.0230292962182
0.0237291646011
0.0237635876677
0.023838387349
0.0245139032992
0.0245410182191
0.0245996526587
0.0252279810124
0.0252465156309
0.0252861659198
0.0258193602698
0.0258276617883
0.0258447186963
0.0262127173355
0.0262093151944
0.0262006142307
0.026326248251
0.0263104131962
0.026274431875
0.0260871339011
0.0260589417051
0.0259958997699
0.0254326338904
0.025392570432
0.0253035509638
0.0242990829058
0.0242476795783
0.0241338506097
0.0226170665036
0.0225550285405
0.0224179546159
0.0203325355175
0.0202615130305
0.0201048718899
0.0173974977204
0.0173198509981
0.0171488736383
0.0138184892122
0.0137381937581
0.0135616952701
0.00969127894713
0.00961431537054
0.009445548821
0.00543474898524
0.00537111090003
0.00523224599895
8.5287603114e-13
2.35921767268e-11
8.35726727282e-10
2.56523069489e-08
6.67430203131e-07
1.26936989508e-05
2.7645989236e-05
4.13681266609e-05
5.28531216275e-05
6.63288017645e-05
0.000128037469352
0.000307911058355
0.000571977303152
0.000868777712373
0.0011627219738
0.00145272078412
0.00176625683301
0.00213630349981
0.00257395505662
0.00306573109839
0.00358868685327
0.00412591263736
0.00467734815663
0.0052581462018
0.00588465856784
0.00656125842709
0.00727827551659
0.00802194466576
0.00878631851667
0.0095746777163
0.0103931300555
0.0112434265149
0.0121215436997
0.0130203128924
0.0139332488059
0.0148568718324
0.0157909783071
0.0167369759759
0.01769425992
0.0186570320393
0.0196138792499
0.020550953219
0.0214566826181
0.0223247053969
0.0231534654823
0.0239417351457
0.0246799111456
0.0253393088386
0.0258657226203
0.0261851924184
0.0262206425595
0.0259041876037
0.0251754835128
0.0239710768201
0.0222227213742
0.0198824992786
0.016906862213
0.013312662412
0.0092084877877
0.0050389819201
2.44177180766e-17
1.20684562409e-16
2.98580694004e-16
4.49784944925e-16
3.99114423867e-16
2.30384174471e-16
9.41502810195e-17
2.88335168876e-17
6.93510800912e-18
1.34566465572e-18
2.13631324359e-19
2.80323013795e-20
3.06606198974e-21
2.81799962556e-22
2.19607538168e-23
1.46762837192e-24
8.54720616749e-26
4.4254506837e-27
2.06117758385e-28
4.79794381912e-30
4.43066147562e-16
1.96851305565e-15
5.73595823501e-15
9.63376479825e-15
8.13922543719e-15
4.22845481315e-15
1.52718920242e-15
4.12924799964e-16
8.84951946155e-17
1.54187380064e-17
2.21561217598e-18
2.65520604616e-19
2.67916544104e-20
2.29731877084e-21
1.69167064348e-22
1.08420892503e-23
6.16727929706e-25
3.19115717057e-26
1.47991402385e-27
3.37535914309e-29
1.06275736816e-14
1.95995758098e-14
6.57642786477e-14
1.21962635869e-13
9.70741989009e-14
4.56516499679e-14
1.48056063979e-14
3.62141089204e-15
7.09002587779e-16
1.13535394555e-16
1.51025864201e-17
1.6888811492e-18
1.60386535548e-19
1.30631021439e-20
9.22930449615e-22
5.74198327955e-23
3.21506395968e-24
1.67246930522e-25
7.80925297533e-27
1.68092968322e-28
4.68517395455e-13
2.34047362854e-13
7.03078334158e-13
1.24625195223e-12
9.16436061847e-13
3.97855177136e-13
1.19247806742e-13
2.72844698108e-14
5.02251344231e-15
7.60803312778e-16
9.63750412421e-17
1.03326284072e-17
9.46996432572e-19
7.4927117022e-20
5.17722254782e-21
3.17358216567e-22
1.76641976011e-23
9.25075288941e-25
4.42824429192e-26
1.17125380393e-27
3.04151757418e-11
7.35405121149e-12
1.07728552529e-11
1.41553199292e-11
8.96647511784e-12
3.5263612221e-12
9.68901656122e-13
2.05978837969e-13
3.54391223611e-14
5.06653728086e-15
6.11843392964e-16
6.31204378207e-17
5.61339463491e-18
4.34206639996e-19
2.95342371286e-20
1.79418876668e-21
9.96749458151e-23
5.25892528583e-24
2.57795073266e-25
8.51701867059e-27
1.70582348515e-09
6.79201220748e-10
2.87134365066e-10
1.84781592998e-10
8.95215671699e-11
3.09424436e-11
7.72824603405e-12
1.50507589994e-12
2.40417719415e-13
3.23769354164e-14
3.73206540319e-15
3.71693288122e-16
3.22160796353e-17
2.44810464878e-18
1.64686781238e-19
9.95265808448e-21
5.52945965661e-22
2.93326706912e-23
1.45066251624e-24
5.38232442221e-26
6.98014933051e-08
7.72561450017e-08
1.57500484092e-08
3.65817808046e-09
1.00945999925e-09
2.67325876562e-10
5.79832177577e-11
1.02199304257e-11
1.51406176037e-12
1.92848819634e-13
2.13567897991e-14
2.06864390771e-15
1.76037707121e-16
1.32309598523e-17
8.85330691699e-19
5.34452970892e-20
2.97393973982e-21
1.58063839995e-22
7.75408572281e-24
3.00157730056e-25
2.34698233838e-06
5.24577099951e-06
9.62235429216e-07
1.21723134348e-07
1.44097567929e-08
2.21694541337e-09
3.81433730363e-10
6.04049484358e-11
8.41206848957e-12
1.03134944033e-12
1.1161234402e-13
1.06731800062e-14
9.03124573603e-16
6.78333146322e-17
4.55088786202e-18
2.75895685596e-19
1.54064539244e-20
8.17872988779e-22
3.93090890144e-23
1.50662197085e-24
6.27596171858e-05
0.000798438033388
2.9419774017e-05
1.46863069276e-06
1.15570897732e-07
1.2930647973e-08
1.87439470032e-09
2.81239369084e-10
3.87501035333e-11
4.76727275135e-12
5.20462069118e-13
5.03317155565e-14
4.31228309451e-15
3.28103427725e-16
2.22873792891e-17
1.36550044502e-18
7.67187906711e-20
4.0600673115e-21
1.89741458093e-22
6.95966568812e-24
9.62564018964e-05
0.000527868811166
5.17294372911e-05
2.31593758815e-06
2.42442503144e-07
3.43776551559e-08
5.78702048274e-09
9.69527185187e-10
1.45081147221e-10
1.89587921365e-11
2.1671819525e-12
2.17497626569e-13
1.92236771743e-14
1.50177620053e-15
1.04257873221e-16
6.49259425755e-18
3.67860698446e-19
1.93834926731e-20
8.77176293994e-22
3.02230004144e-23
0.00011045212053
0.000350793874582
7.04911266747e-05
6.50049632787e-06
8.49540669652e-07
1.16585376246e-07
1.87110612052e-08
3.18567930002e-09
5.01815422967e-10
6.94919177312e-11
8.39022145655e-12
8.83933402019e-13
8.145065754e-14
6.58707201644e-15
4.69955212052e-16
2.98354184821e-17
1.70582381072e-18
8.9361484621e-20
3.90750783822e-21
1.25381914214e-22
0.000116307702923
0.000272992555807
2.69663833692e-05
8.76263550938e-06
1.80564211848e-06
3.01553965756e-07
5.17069856846e-08
9.43851359819e-09
1.61772647813e-09
2.42353525564e-10
3.12850530241e-11
3.48375343071e-12
3.35839560305e-13
2.81530087827e-14
2.06383663076e-15
1.33412006664e-16
7.68277044431e-18
3.99204405611e-19
1.68507374399e-20
5.0231859171e-22
0.000132567631131
0.000306848570434
0.000172006363646
2.83611235557e-05
4.47796564082e-06
7.63102041982e-07
1.42934360875e-07
2.87178698137e-08
5.39066927791e-09
8.69576968449e-10
1.18789710018e-10
1.38202405751e-11
1.37916904518e-12
1.18801081861e-13
8.88768871844e-15
5.81936271115e-16
3.36234044435e-17
1.72844972499e-18
7.04560901356e-20
1.95554417258e-21
0.000324931068621
0.00165944220315
0.0122605480219
0.000751888573784
5.3012876881e-05
5.53139985974e-06
7.51982053577e-07
1.26625985089e-07
2.21027062306e-08
3.48950245975e-09
4.76310607066e-10
5.58682307784e-11
5.64283674113e-12
4.9238619007e-13
3.72555721303e-14
2.45727346712e-15
1.42022448969e-16
7.21620379821e-18
2.84825964385e-19
7.40780671588e-21
0.000841703556613
0.00433894094875
0.0268661186329
0.00262218767413
0.000275064797297
3.36210527328e-05
4.16664916212e-06
5.91827596921e-07
9.225181287e-08
1.38129517804e-08
1.8481718838e-09
2.16180985668e-10
2.1973450993e-11
1.93744091241e-12
1.48189600289e-13
9.85386021144e-15
5.70779953918e-16
2.87547763925e-17
1.10559085802e-18
2.72166794228e-20
0.0013899955213
0.00524281327059
0.0175113217255
0.00115427178363
0.000343139042587
6.67655072898e-05
1.05159491428e-05
1.6468668774e-06
2.71138519079e-07
4.26881142441e-08
5.9720152259e-09
7.25656171208e-10
7.62250146491e-11
6.91500320975e-12
5.41647132945e-13
3.66727814096e-14
2.14675395041e-15
1.08075099072e-16
4.08534940973e-18
9.64178947195e-20
0.00184362552076
0.00527708718491
0.0117346610222
0.000869381632618
0.000353675171215
8.85501419921e-05
1.71416879055e-05
3.12088289664e-06
5.78519300465e-07
1.01459512443e-07
1.55924833275e-08
2.04725795389e-09
2.29059389421e-10
2.1876653349e-11
1.78610492733e-12
1.24864402637e-13
7.47341641317e-15
3.79964334054e-16
1.42758287928e-17
3.27580177704e-19
0.00217931754614
0.00498549917817
0.00842128767626
0.00145737905533
0.000412841157635
0.000106378418195
2.34547077715e-05
4.8805745473e-06
1.02114528381e-06
2.01412133049e-07
3.45361837113e-08
4.98722741815e-09
6.04539579525e-10
6.1718630968e-11
5.32289853289e-12
3.88768641633e-13
2.40463371351e-14
1.24731237888e-15
4.70712733362e-17
1.0646586103e-18
0.00246604488851
0.00491276176
0.00832933834578
0.0134150254202
0.00143020394575
0.000188522840079
3.67630090142e-05
7.82814705144e-06
1.73986921066e-06
3.72750182795e-07
7.00927670173e-08
1.1062896111e-08
1.45276634545e-09
1.59071359532e-10
1.45674700686e-11
1.11853810599e-12
7.1997759191e-14
3.8395989997e-15
1.46803308493e-16
3.3130123868e-18
0.00280157207897
0.00530354468398
0.0101976939671
0.0247568736301
0.00362852410763
0.000519189497317
9.09808628544e-05
1.67672269025e-05
3.40153617671e-06
7.20010607834e-07
1.40795499553e-07
2.35934629828e-08
3.30500249057e-09
3.85232946608e-10
3.73649007857e-11
3.01808560698e-12
2.02752313021e-13
1.1168372339e-14
4.35356598106e-16
9.90404408305e-18
0.00324546792601
0.00606230937441
0.0123353404772
0.0297065333971
0.00200617399692
0.000646058391972
0.000155743619181
3.20527312021e-05
6.52158493473e-06
1.37933248234e-06
2.77590612323e-07
4.87796720048e-08
7.21694182131e-09
8.89437995798e-10
9.10220894364e-11
7.72431227446e-12
5.42046126416e-13
3.09245500214e-14
1.23472067053e-15
2.85590270652e-17
0.00377598551843
0.00683499120274
0.0131659188396
0.0257765885354
0.00192109016263
0.000696007941216
0.000201123634315
4.77663401517e-05
1.06065453674e-05
2.37739238767e-06
5.07810609255e-07
9.50196941022e-08
1.49490754525e-08
1.95297427836e-09
2.11072878774e-10
1.88345518341e-11
1.38267559462e-12
8.19086612271e-14
3.36318346527e-15
7.96931037237e-17
0.00433067529781
0.00738279853446
0.0127169261297
0.0193024912617
0.00221530733662
0.000786942472912
0.0002404675397
6.38183351809e-05
1.55434083882e-05
3.74183220482e-06
8.58489677697e-07
1.72881596434e-07
2.91629945296e-08
4.06153982875e-09
4.6534261494e-10
4.37866077521e-11
3.37170842565e-12
2.08024758098e-13
8.8193213599e-15
2.15596455446e-16
0.00486338225593
0.00771546207724
0.0119357402853
0.0156112284029
0.00791069396189
0.0014622378549
0.00035463950433
9.39697107867e-05
2.34382619404e-05
5.79523930978e-06
1.39435422083e-06
2.99333002448e-07
5.4027704579e-08
8.02879568117e-09
9.77088719285e-10
9.71810387576e-11
7.87033475255e-12
5.07283516364e-13
2.22931408271e-14
5.65872105964e-16
0.00536630255992
0.00796956436928
0.0115023916646
0.0149591121478
0.016502544078
0.000921909902137
0.000395722471004
0.000127117196948
3.42535308906e-05
8.73517164215e-06
2.18264887042e-06
4.95899741052e-07
9.54876224209e-08
1.51348149835e-08
1.95826735665e-09
2.06233878437e-10
1.76068035472e-11
1.18895118882e-12
5.43583644237e-14
1.4410581578e-15
0.00586795262891
0.00829626522551
0.0116700026633
0.016281122059
0.0252863474104
0.00158448913291
0.000463733573918
0.000156520499762
4.54386660269e-05
1.22117334806e-05
3.20753240046e-06
7.75590765258e-07
1.59970041178e-07
2.71353782004e-08
3.74361305979e-09
4.18566348635e-10
3.77692317727e-11
2.67970383538e-12
1.27897634753e-13
3.55967722328e-15
0.00640865693792
0.00876820614991
0.0122622978755
0.0178415851945
0.0287869833379
0.00224839809274
0.000563169154834
0.000185492813076
5.64161848468e-05
1.59889709838e-05
4.43551128947e-06
1.14497361267e-06
2.5383645735e-07
4.62518887476e-08
6.8268641913e-09
8.1280880357e-10
7.77363468208e-11
5.81100408884e-12
2.90455777673e-13
8.52639903325e-15
0.00701077882889
0.0093580380529
0.0129424739256
0.0185976836721
0.027525044627
0.00237963143762
0.000680588384225
0.000220691332627
6.94938801813e-05
2.05556512702e-05
5.9573836812e-06
1.62802288875e-06
3.86342997385e-07
7.553996377e-08
1.19354470048e-08
1.51516350693e-09
1.53849321477e-10
1.21418892373e-11
6.37192730059e-13
1.98043417234e-14
0.00766700318834
0.0099846446955
0.0134632103596
0.0184422086414
0.0242598989549
0.00344093473941
0.000887999964299
0.000282869039097
9.06687311919e-05
2.72657435267e-05
8.03835394454e-06
2.28119665245e-06
5.73001481724e-07
1.19522123466e-07
2.01585297401e-08
2.72566107893e-09
2.93850703413e-10
2.45045718114e-11
1.3523411889e-12
4.46306659545e-14
0.00835270068804
0.010586187166
0.0138062002884
0.0179836291559
0.0220358609796
0.00890492858623
0.000560974877299
0.000292980486734
0.000111439722253
3.56164510753e-05
1.0739233475e-05
3.14209846407e-06
8.29668132963e-07
1.83824611418e-07
3.30120311855e-08
4.74780871983e-09
5.43185868671e-10
4.78729125602e-11
2.78096192255e-12
9.76546942438e-14
0.00904909493235
0.0111573314111
0.0140988548921
0.0177681958852
0.02160955325
0.0169635124456
0.00111608799911
0.0003371672709
0.000130667767209
4.40993924248e-05
1.3785521653e-05
4.18223159857e-06
1.16203168657e-06
2.73568589109e-07
5.2326984942e-08
8.00703303218e-09
9.72426247606e-10
9.06202919326e-11
5.54578034113e-12
2.07542273676e-13
0.00975731505197
0.0117376754973
0.0144767404508
0.0179719036154
0.0222812988643
0.0232576368842
0.0018420666502
0.000423652289381
0.000153347481841
5.31613336782e-05
1.71730534581e-05
5.39574139356e-06
1.57483622155e-06
3.93716356736e-07
8.02354237702e-08
1.30706128557e-08
1.68612316139e-09
1.66258602235e-10
1.07280600338e-11
4.28448896025e-13
0.0104911775935
0.0123680558724
0.0149932242323
0.0184829981835
0.0231797482794
0.0265314495787
0.00230596537161
0.000480683742225
0.000181574591704
6.47970409629e-05
2.13960818953e-05
6.87585781028e-06
2.08834663157e-06
5.51563157133e-07
1.19468808136e-07
2.06987809115e-08
2.83556054272e-09
2.95895110326e-10
2.01414909594e-11
8.59302143625e-13
0.0112622808564
0.0130608825984
0.0156156223816
0.019090616712
0.0237968903771
0.0274528475567
0.00247144755563
0.000171048331394
0.000170679116294
7.44189493515e-05
2.61606048822e-05
8.63591402054e-06
2.71588077385e-06
7.54399542428e-07
1.73210719247e-07
3.18698634823e-08
4.63273929669e-09
5.11465716695e-10
3.6731161106e-11
1.6751612664e-12
0.0120700199382
0.013796107022
0.0162617150952
0.0195905549862
0.0238665514586
0.0266862865903
0.00283615623558
0.000168719931669
0.000155278762862
8.05557140734e-05
3.06776609481e-05
1.05257559171e-05
3.4360313261e-06
1.00341246477e-06
2.44116933867e-07
4.76918145864e-08
7.35576597881e-09
8.59176230961e-10
6.51064170992e-11
3.17588903296e-12
0.0129051375859
0.0145482182006
0.0168845165204
0.0199691054344
0.0237092182715
0.0258985004416
0.00637884497968
0.000413771099873
0.000157896971862
8.55292188884e-05
3.48112588342e-05
1.24465516428e-05
4.22216598733e-06
1.29589047722e-06
3.34085668718e-07
6.93284854691e-08
1.13501085655e-08
1.4030377576e-09
1.12218414447e-10
5.85880776078e-12
0.0137576587828
0.0153052614955
0.0174896544822
0.0203221331927
0.0236660238112
0.0257472705115
0.0109540115455
0.000831201395092
0.000183810906486
9.20038567706e-05
3.9030618562e-05
1.44686250171e-05
5.08034547694e-06
1.63337363086e-06
4.45430778822e-07
9.8117808607e-08
1.70471465025e-08
2.2300735023e-09
1.88283548258e-10
1.05269919484e-11
0.0146222318074
0.0160701670945
0.0181070245851
0.0207355804594
0.0238531956219
0.0260568009149
0.0147789083018
0.00124552113024
0.000160062843051
9.55868475325e-05
4.34056754887e-05
1.66975491755e-05
6.03624603357e-06
2.02191236769e-06
5.81317437155e-07
1.3567901797e-07
2.4991033386e-08
3.45753911915e-09
3.0805796031e-10
1.84501152177e-11
0.0154985642129
0.0168520767231
0.018761359333
0.0212405062151
0.0242289834492
0.0265202525231
0.0175739977979
0.00157990548398
8.03083441652e-05
8.77663126077e-05
4.66770576182e-05
1.89988930051e-05
7.0768458692e-06
2.46055863859e-06
7.43706260723e-07
1.83620212584e-07
3.58200018052e-08
5.23738213931e-09
4.92251557447e-10
3.15870298406e-11
0.0163891241013
0.0176581999498
0.0194603188964
0.0218221712729
0.0246964105086
0.0269228677555
0.0195442942744
0.00184788034754
9.5155287345e-05
7.96626657686e-05
4.86703256639e-05
2.11535426078e-05
8.14586841071e-06
2.93562069177e-06
9.31246446907e-07
2.4301954004e-07
5.0189672237e-08
7.75335250912e-09
7.68635330698e-10
5.28632548083e-11
0.0172961296518
0.0184900460981
0.0201966403656
0.0224450681605
0.0251637343506
0.0271428261884
0.0206421297215
0.00204337501861
0.000123937770423
7.17182881551e-05
4.95243319802e-05
2.30733110348e-05
9.2041286462e-06
3.43268077848e-06
1.14084055774e-06
3.14419705219e-07
6.873157047e-08
1.12172835258e-08
1.17301531084e-09
8.65145876066e-11
0.0182176022261
0.0193404257372
0.0209501092757
0.0230636323712
0.0255513084349
0.0270992847519
0.0209373288515
0.00215839528898
0.000150571964733
5.99608860449e-05
4.89349286123e-05
2.4727025742e-05
1.02463254608e-05
3.94596983854e-06
1.37033488445e-06
3.98290070532e-07
9.2098107656e-08
1.58745412453e-08
1.75098303266e-09
1.38562073556e-10
0.0191449716933
0.0201936925653
0.0216930986537
0.0236346809777
0.0258084862436
0.0267861005305
0.0206324021611
0.00221450282959
0.000170483224431
3.53004137424e-05
4.55085592703e-05
2.59587019017e-05
1.12671804466e-05
4.47386997536e-06
1.61837546681e-06
4.9511566876e-07
1.20984534813e-07
2.20108249546e-08
2.56031609299e-09
2.17463044893e-10
0.0200641897305
0.0210305106995
0.0224006393437
0.0241329320358
0.0259315262941
0.0262847201809
0.0200281704714
0.00244718964752
0.000199398962372
1.35086646277e-05
3.89149238891e-05
2.65044926154e-05
1.22257095889e-05
5.00817411921e-06
1.8817604853e-06
6.04791151176e-07
1.56011904221e-07
2.9939583865e-08
3.67193602646e-09
3.34839929524e-10
0.02096033488
0.0218350802109
0.0230595885668
0.0245577492464
0.0259558409303
0.025712714855
0.0193884190796
0.00295598024979
0.0002526238164
1.22304756437e-05
3.17370090447e-05
2.6309541672e-05
1.30628201847e-05
5.53165127627e-06
2.15391030841e-06
7.25977133957e-07
1.97533370162e-07
3.99670579014e-08
5.16784914343e-09
5.06118680441e-10
0.0218225345817
0.0225993135646
0.0236684065502
0.0249199975635
0.025913414484
0.0251236102195
0.0187589866121
0.00350381153869
0.000315576642852
1.61744465841e-05
2.50693605102e-05
2.54369373401e-05
1.37390738209e-05
6.0287016432e-06
2.42731898158e-06
8.56374941381e-07
2.45575812709e-07
5.23643272854e-08
7.13819035929e-09
7.51114863246e-10
0.0226457636479
0.0233212917606
0.0242292444738
0.0252251427893
0.0258105505477
0.0245067652805
0.0180733845871
0.00390687155461
0.00037047542798
2.09312474078e-05
1.93108338231e-05
2.39431594987e-05
1.42344836298e-05
6.4921273427e-06
2.69657762847e-06
9.93552711747e-07
2.99953657285e-07
6.73681432445e-08
9.68084938883e-09
1.09482031392e-09
0.023428969693
0.0240003083916
0.0247398156591
0.025466018868
0.0256336149231
0.0238340032579
0.0173002187052
0.00407223697797
0.000404822200738
2.49377835501e-05
1.37172727178e-05
2.17980479383e-05
1.45202449704e-05
6.91880167942e-06
2.95847557767e-06
1.13525537713e-06
3.60342273493e-07
8.51852209725e-08
1.29021454311e-08
1.56833188699e-09
0.0241695504622
0.024629834221
0.025186412484
0.0256199049096
0.0253527250921
0.0230636205502
0.0163920386899
0.00396575304493
0.000411521887917
2.71973094188e-05
8.02995191381e-06
1.89372452786e-05
1.4539673216e-05
7.30192105299e-06
3.21026305989e-06
1.27909747668e-06
4.26195252783e-07
1.05965860587e-07
1.69128345213e-08
2.20925957849e-09
0.0248546201319
0.0251897303743
0.0255395459362
0.0256501530395
0.0249291148486
0.0221537741744
0.015317480813
0.00360641941233
0.00038981874689
2.74516046639e-05
4.48111673798e-06
1.56615707677e-05
1.4240401039e-05
7.62911052804e-06
3.4486708483e-06
1.42232440701e-06
4.96627847065e-07
1.29755711594e-07
2.18176006354e-08
3.06092201831e-09
0.0254516952663
0.0256405705258
0.0257538492942
0.0255112768254
0.0243230010639
0.0210712828905
0.014067911846
0.00305337123248
0.000342997775151
2.56738690984e-05
3.15487654152e-06
1.24819305358e-05
1.36097961533e-05
7.88637739233e-06
3.67074641997e-06
1.5621441097e-06
5.70439284787e-07
1.56465329227e-07
2.77029314993e-08
4.17035310782e-09
0.0259046398663
0.0259242929683
0.025773470537
0.0251564822844
0.0235009597621
0.0197972957075
0.0126565990637
0.00239002382245
0.000278712349575
2.39850995495e-05
2.75833861751e-06
9.70463069688e-06
1.26709686457e-05
8.05920132015e-06
3.87467728858e-06
1.6962396902e-06
6.46239307663e-07
1.85867273546e-07
3.462715749e-08
5.58553452653e-09
0.0261414495864
0.0259751542066
0.0255451269565
0.0245517055059
0.0224525927219
0.0183519320319
0.011162923428
0.00185764176519
0.000222377799642
2.20435478016e-05
2.62478686719e-06
7.39920117456e-06
1.14715327076e-05
8.12920490306e-06
4.05917100989e-06
1.82290445004e-06
7.22518495982e-07
2.17589487052e-07
4.26103202544e-08
7.35230813276e-09
0.0260904180218
0.0257336636382
0.025026966705
0.0236760076024
0.0211776666027
0.0167555828164
0.00963946645785
0.0016031135421
0.000206516486993
2.2834929066e-05
2.77895426178e-06
5.57854949486e-06
1.00910536383e-05
8.0744252807e-06
4.22298423263e-06
1.94110828937e-06
7.97699603501e-07
2.511021536e-07
5.16230591127e-08
9.51134670888e-09
0.025688853172
0.0251471357229
0.0241770617903
0.0224940580151
0.0196370382529
0.0149513961134
0.00800134184975
0.00142697527417
0.000203504061985
2.50298990938e-05
3.15032316233e-06
4.21948277281e-06
8.63248052218e-06
7.87212420941e-06
4.36401705694e-06
2.050456934e-06
8.70181713278e-07
2.85706824416e-07
6.15795229759e-08
1.20971669154e-08
0.0248786930537
0.0241608000195
0.0229416919879
0.0209479268655
0.0177627733211
0.0128639027847
0.00618802611213
0.001197458585
0.000190059746821
2.61400163292e-05
3.51611693823e-06
3.28248806218e-06
7.20801000676e-06
7.50574434284e-06
4.47588251984e-06
2.15031066846e-06
9.38174763116e-07
3.20477046518e-07
7.23267942044e-08
1.51386774803e-08
0.0235965685128
0.0227109238388
0.02125598832
0.0189724524277
0.0154972827846
0.0104675441146
0.00425228849258
0.000900562024675
0.000159482151992
2.46036737037e-05
3.63242295152e-06
2.63890645925e-06
5.93722400139e-06
6.98186821817e-06
4.54667503933e-06
2.23939656074e-06
9.99691320012e-07
3.54237553031e-07
8.36465221005e-08
1.86633049109e-08
0.0217756985489
0.0207350037815
0.0190668906258
0.0165354414748
0.0128528519197
0.00786349213849
0.00245835813926
0.000578117971935
0.000115047678391
2.0038804886e-05
3.32408236218e-06
2.16059133453e-06
4.87654704461e-06
6.33229044857e-06
4.56027102508e-06
2.31611132441e-06
1.0528168773e-06
3.85650493304e-07
9.52804578529e-08
2.2702093482e-08
0.0193753774479
0.018210517764
0.0163845205265
0.0137039254985
0.0099951286539
0.00540037884169
0.00155833959022
0.000388455941572
8.38621751874e-05
1.60474991454e-05
2.94539456143e-06
1.81799581029e-06
4.03499573318e-06
5.60844153796e-06
4.49909911276e-06
2.37820121686e-06
1.09585215985e-06
4.13313754884e-07
1.06964053408e-07
2.72919609926e-08
0.0163569341949
0.0151091670205
0.0131944292991
0.0104780956625
0.00693297045431
0.00305689520826
0.000941237698769
0.000252899265186
5.9524575923e-05
1.24885924903e-05
2.53751821681e-06
1.56684905488e-06
3.36980212952e-06
4.87972805104e-06
4.35182138311e-06
2.42305211673e-06
1.12760355223e-06
4.35882992024e-07
1.18447382421e-07
3.24665575829e-08
0.0127490457516
0.011488344385
0.00960409968799
0.00705526734187
0.00403913381544
0.00154014669796
0.000515191925334
0.000151172950141
3.91354630683e-05
9.05839102944e-06
2.06420591628e-06
1.3582953897e-06
2.83286928315e-06
4.20014188398e-06
4.11922457966e-06
2.44847725907e-06
1.14781343268e-06
4.52244309244e-07
1.29503647296e-07
3.82316493777e-08
0.00867500874384
0.00750619920463
0.00583050493604
0.00374859217592
0.00174815939127
0.000716442690073
0.000259668936071
8.30969561592e-05
2.36551888263e-05
6.04870823777e-06
1.56943671516e-06
1.16764578783e-06
2.38975008954e-06
3.5999294547e-06
3.81066731446e-06
2.45175577827e-06
1.15705853013e-06
4.61429707448e-07
1.39823922121e-07
4.45302693915e-08
0.00460928124453
0.00370923932681
0.00254254212794
0.00140447718195
0.000695630436199
0.00030716734308
0.000120722749506
4.22626735314e-05
1.32451957723e-05
3.75484021587e-06
1.12751475944e-06
9.76228860597e-07
2.00419269848e-06
3.07619534323e-06
3.44888230381e-06
2.42800377977e-06
1.15218318128e-06
4.61718808644e-07
1.48751242025e-07
5.1140281559e-08
8.2901369807e-27
1.62975202312e-26
1.04178690317e-26
1.85741674676e-26
2.99290602565e-26
3.70585715197e-26
1.22020473604e-25
1.08353110699e-25
4.85336968829e-25
3.12410862346e-25
1.82449851186e-24
9.20552800451e-25
6.59684002638e-24
2.76336989128e-24
2.3275089254e-23
8.43770544551e-24
8.09651787175e-23
2.62132041208e-23
2.79591736593e-22
8.28746287703e-23
9.60242036051e-22
2.6600358852e-22
3.26885697787e-21
8.61507637551e-22
1.09562630864e-20
2.79096073015e-21
3.59045562386e-20
8.96405398815e-21
1.14484336266e-19
2.83462164417e-20
3.54528336015e-19
8.79004188065e-20
1.06697103529e-18
2.6694952566e-19
3.12644472602e-18
7.94240071154e-19
8.93429522657e-18
2.31672973121e-18
2.49138979094e-17
6.62919042505e-18
6.77840954342e-17
1.85866235732e-17
1.79815893483e-16
5.09640132355e-17
4.64616116309e-16
1.36458846218e-16
1.16808988524e-15
3.56301154912e-16
2.85521278171e-15
9.06255905477e-16
6.78165233949e-15
2.24481972561e-15
1.56518203149e-14
5.40816765209e-15
3.50974276638e-14
1.26626874657e-14
7.6449957211e-14
2.8797950112e-14
1.6175273322e-13
6.35940238744e-14
3.32522968011e-13
1.36365051494e-13
6.64498644322e-13
2.84024816256e-13
1.29158868073e-12
5.7490164346e-13
2.44403393478e-12
1.1317712789e-12
4.50834626247e-12
2.16945730765e-12
8.11772763046e-12
4.05429043231e-12
1.42804828758e-11
7.39393527936e-12
2.45572787617e-11
1.316834413e-11
4.13112340887e-11
2.29191056439e-11
6.80593120003e-11
3.90205577323e-11
1.09926600826e-10
6.50493777992e-11
1.74173314977e-10
1.06251407354e-10
2.70787867354e-10
1.70100117398e-10
4.13190968001e-10
2.66955376469e-10
6.19030718526e-10
4.10805162264e-10
9.10852863649e-10
6.19972602302e-10
1.3163147646e-09
9.1756387799e-10
1.86779099611e-09
1.33150079771e-09
2.60144097513e-09
1.89413444723e-09
3.55609872393e-09
2.64174228959e-09
4.77219382852e-09
3.61402787616e-09
6.29163788015e-09
4.85421275575e-09
8.15822444782e-09
6.40915549486e-09
1.04194777616e-08
8.33030215068e-09
1.31262243129e-08
1.06712979807e-08
1.63242091028e-08
1.34753019122e-08
2.00434719275e-08
1.67651450483e-08
2.42695273256e-08
2.05113554857e-08
2.89110675734e-08
2.45835819565e-08
3.42313831048e-08
2.95667863548e-08
)
;

boundaryField
{
    inletfuel
    {
        type            fixedValue;
        value           uniform 0;
    }
    inletair
    {
        type            fixedValue;
        value           uniform 0;
    }
    outlet
    {
        type            zeroGradient;
    }
    axis
    {
        type            empty;
    }
    leftside
    {
        type            zeroGradient;
    }
    burnerwall
    {
        type            zeroGradient;
    }
    front
    {
        type            wedge;
    }
    back
    {
        type            wedge;
    }
}


// ************************************************************************* //
