/*--------------------------------*- C++ -*----------------------------------*\
  =========                 |
  \\      /  F ield         | OpenFOAM: The Open Source CFD Toolbox
   \\    /   O peration     | Website:  https://openfoam.org
    \\  /    A nd           | Version:  dev
     \\/     M anipulation  |
\*---------------------------------------------------------------------------*/
FoamFile
{
    version     2.0;
    format      ascii;
    class       volScalarField;
    location    "0.3";
    object      C2H5;
}
// * * * * * * * * * * * * * * * * * * * * * * * * * * * * * * * * * * * * * //

dimensions      [0 0 0 0 0 0 0];

internalField   nonuniform List<scalar> 
1629
(
5.59833036697e-23
4.80462032995e-23
3.29203439647e-23
8.33075763146e-21
9.59087370928e-21
1.33293742718e-20
7.03296016552e-19
1.15120117116e-18
3.17538074064e-18
4.65992193451e-17
1.0689055274e-16
5.05545293866e-16
2.84048442537e-15
7.83566504872e-15
3.5496041027e-14
1.55548137543e-13
4.98410117524e-13
2.18872981083e-12
6.73655085732e-12
2.35275146695e-11
1.0169047532e-10
1.76743343777e-10
6.41677493697e-10
2.93264780055e-09
8.70318074694e-10
2.48159402055e-09
8.65043016777e-09
2.23541182127e-09
4.89645887068e-09
1.25773445422e-08
4.02301019198e-09
7.00209296158e-09
1.37448249097e-08
6.03104420941e-09
8.96136136965e-09
1.50804029922e-08
8.61941687043e-09
1.19419508837e-08
1.98158059923e-08
1.20460029361e-08
1.60299731631e-08
2.60148238371e-08
1.65069760536e-08
2.14836868328e-08
3.46677703483e-08
2.05955019968e-08
2.56940418845e-08
3.87994994961e-08
2.26793458554e-08
2.69700354816e-08
3.77467258465e-08
2.22003352804e-08
2.53587074916e-08
3.34084687392e-08
1.98594127971e-08
2.21251127213e-08
2.8229111863e-08
1.70002462019e-08
1.89010187913e-08
2.44219088004e-08
1.47341454752e-08
1.67604718355e-08
2.293885423e-08
1.35597251639e-08
1.60379521297e-08
2.36781826888e-08
1.34871527556e-08
1.65855757825e-08
2.60536635139e-08
1.45726996343e-08
1.8463974194e-08
3.00893565871e-08
1.72805922943e-08
2.22229811387e-08
3.64356914751e-08
2.2568484726e-08
2.8863194795e-08
4.60067512533e-08
3.16212525862e-08
3.94794487976e-08
5.9464505941e-08
4.53267065475e-08
5.44954297368e-08
7.62884429336e-08
6.29273354358e-08
7.2626742349e-08
9.44646864011e-08
8.17922448081e-08
9.10093891623e-08
1.10956239228e-07
9.83813599309e-08
1.0643432623e-07
1.23567904776e-07
1.10719690299e-07
1.17549112095e-07
1.32135198618e-07
1.19181068174e-07
1.25176444776e-07
1.38176198798e-07
1.2588636005e-07
1.31539997903e-07
1.43951925937e-07
1.33213705642e-07
1.38843116605e-07
1.51255695871e-07
1.43010354202e-07
1.48722573537e-07
1.6123152292e-07
1.56233670639e-07
1.61911709225e-07
1.74183473722e-07
1.72564811871e-07
1.77921509333e-07
1.8930289919e-07
1.90058717486e-07
1.94719548073e-07
2.04462348487e-07
2.05553069622e-07
2.09267550267e-07
2.16950045266e-07
2.16624843544e-07
2.19445808404e-07
2.25284876895e-07
2.23581704569e-07
2.25829330727e-07
2.30582677767e-07
2.29519128436e-07
2.31606939082e-07
2.36157904642e-07
2.38717187196e-07
2.40994033176e-07
2.46067588349e-07
2.55289041093e-07
2.58003075611e-07
2.64109760808e-07
2.82710963774e-07
2.86021528875e-07
2.93481894538e-07
3.23594596291e-07
3.275680129e-07
3.36497196349e-07
3.79030104625e-07
3.83606101018e-07
3.9383687037e-07
4.47253091105e-07
4.52199656853e-07
4.6318960823e-07
5.22077506456e-07
5.26994783691e-07
5.37848264203e-07
5.92711211242e-07
5.97135198891e-07
6.06840301283e-07
6.46672150146e-07
6.50253486609e-07
6.58070772236e-07
6.75130233636e-07
6.777726097e-07
6.83521192795e-07
6.77142016507e-07
6.78991784547e-07
6.83009415657e-07
6.59383412754e-07
6.60679018909e-07
6.63487495588e-07
6.31171864468e-07
6.32076820981e-07
6.3402603976e-07
5.98530540176e-07
5.99066054778e-07
6.00194501891e-07
5.61376928269e-07
5.61455944504e-07
5.61571379025e-07
5.14605787342e-07
5.14121483522e-07
5.12993947094e-07
4.50632856042e-07
4.49537059644e-07
4.47070356591e-07
3.63953526082e-07
3.62337873928e-07
3.58745394819e-07
2.5551203387e-07
2.53652580122e-07
2.49553072652e-07
1.40458689667e-07
1.38839749518e-07
1.35303688922e-07
1.92334950335e-15
1.02946702638e-13
5.86066016003e-12
3.02893205506e-10
1.17635351116e-08
2.72013265468e-08
2.81478585866e-08
2.29364542774e-08
2.37872757879e-08
3.51046488164e-08
4.6062721596e-08
6.33975065029e-08
6.56187774967e-08
5.93463302421e-08
5.0010279088e-08
4.16750516837e-08
3.75991017179e-08
3.83018688209e-08
4.26864044892e-08
4.88830108853e-08
5.65318813154e-08
6.61077369768e-08
7.82600303992e-08
9.31313229264e-08
1.09560885911e-07
1.25173313934e-07
1.37703321151e-07
1.46291011194e-07
1.51813060451e-07
1.56212484559e-07
1.61492503745e-07
1.6879268228e-07
1.78620955676e-07
1.90809989927e-07
2.04255552345e-07
2.16906653477e-07
2.26609344116e-07
2.32720705525e-07
2.36922157103e-07
2.42569031582e-07
2.53468677772e-07
2.73135464377e-07
3.04510985562e-07
3.49614211133e-07
4.08717294691e-07
4.78990145904e-07
5.53267957617e-07
6.20477620192e-07
6.68957310632e-07
6.91479482017e-07
6.88554278057e-07
6.67348106658e-07
6.36670954477e-07
6.01659502271e-07
5.61582313826e-07
5.11240376032e-07
4.43441557649e-07
3.53572995337e-07
2.43740731747e-07
1.30375234171e-07
9.86323241786e-22
1.90529903218e-20
5.77332979326e-20
9.23410242343e-20
7.69869400564e-20
3.98846643789e-20
1.44067071749e-20
3.87487986999e-21
8.15955438321e-22
1.383163584e-22
1.91457461926e-23
2.18603498021e-24
2.07590608961e-25
1.65236504485e-26
1.11194112581e-27
6.39420889212e-29
3.19007880654e-30
1.40607243097e-31
5.52558669709e-33
7.18215890103e-35
2.39601204084e-20
3.31862284178e-19
1.24228311681e-18
2.24239331907e-18
1.74078039916e-18
7.97233429652e-19
2.51635628201e-19
5.92871450513e-20
1.10588037723e-20
1.6747295446e-21
2.08792500554e-22
2.16619673406e-23
1.88742493476e-24
1.3934064113e-25
8.80374676806e-27
4.8214858822e-28
2.33202923642e-29
1.01873675119e-30
3.95869174535e-32
5.40905803367e-34
1.31142519981e-18
3.07401039779e-18
1.54503938075e-17
3.12525305104e-17
2.23014005685e-17
9.0807624545e-18
2.54693502923e-18
5.38939474234e-19
9.13240573441e-20
1.26454445059e-20
1.45212533262e-21
1.39877696535e-22
1.14111384115e-23
7.95777427786e-25
4.79522775667e-26
2.53266975275e-27
1.19735623301e-28
5.22085211354e-30
2.03339057856e-31
2.78668011911e-33
1.60041672494e-16
1.89131860626e-17
1.75097062294e-16
3.41868106695e-16
2.20015047113e-16
8.14965515541e-17
2.09453652323e-17
4.12298174281e-18
6.53698369836e-19
8.52336092456e-20
9.28149917131e-21
8.53714229214e-22
6.69457402787e-23
4.51653491858e-24
2.65017023015e-25
1.37284285225e-26
6.42212165202e-28
2.80745732949e-29
1.11898606404e-30
1.85803067254e-32
2.557478209e-14
1.27086024518e-15
3.06390575201e-15
4.25021585392e-15
2.26346446856e-15
7.43749548028e-16
1.71947602808e-16
3.13317487435e-17
4.6114151707e-18
5.63951495511e-19
5.82326338288e-20
5.12949263172e-21
3.8856167325e-22
2.55169541649e-23
1.46754333681e-24
7.50204805187e-26
3.48892002502e-27
1.53191679129e-28
6.25013920618e-30
1.32090791688e-31
4.68700648653e-12
4.30632143113e-13
1.15773083375e-13
6.20307753777e-14
2.36668582917e-14
6.65180433686e-15
1.37936750059e-15
2.2565679677e-16
3.07718289182e-17
3.51805565164e-18
3.44798935214e-19
2.91815785865e-20
2.14495666377e-21
1.37794501014e-22
7.80532202678e-24
3.95355130925e-25
1.8322369288e-26
8.0683601384e-28
3.31722761746e-29
7.75245133149e-31
7.1849667631e-10
3.22376978501e-10
1.48136237893e-11
1.41065070822e-12
2.75363220322e-13
5.72903116224e-14
1.01383228423e-14
1.48281425275e-15
1.84157909294e-16
1.98541443462e-17
1.86326359686e-18
1.52891599397e-19
1.09993145612e-20
6.96617022896e-22
3.91187027456e-23
1.97278277876e-24
9.13046486672e-26
4.02026521362e-27
1.63653749426e-28
3.89442038394e-30
7.55600172315e-08
9.9579126163e-09
7.27052608505e-10
4.74843793595e-11
3.74453010908e-12
4.42438449615e-13
6.1124459453e-14
7.98373536256e-15
9.3115429252e-16
9.59223059423e-17
8.82070487076e-18
7.15484034678e-19
5.11860815814e-20
3.23682761034e-21
1.81968504695e-22
9.19939384481e-24
4.2657691153e-25
1.87421698253e-26
7.46238145762e-28
1.71485177441e-29
1.24985941014e-07
1.13468928718e-06
1.29569369967e-08
3.15423768984e-10
1.69325884201e-11
1.71549864656e-12
2.23270543344e-13
2.94333044609e-14
3.51742628593e-15
3.72381256143e-16
3.51799519436e-17
2.91210945782e-18
2.12126671017e-19
1.3630425117e-20
7.7697618073e-22
3.97201298675e-23
1.85387950938e-24
8.12679216415e-26
3.14461432288e-27
6.76199064819e-29
7.27325802667e-08
3.517613978e-07
8.49175723384e-09
2.19480420914e-10
1.80332629157e-11
2.71717942311e-12
4.55832311526e-13
7.22571916829e-14
9.90043220888e-15
1.1603757209e-15
1.17726408223e-16
1.02761619887e-17
7.80449402987e-19
5.18407835924e-20
3.03368285496e-21
1.58167359428e-22
7.46789197762e-24
3.27077227625e-25
1.22723864055e-26
2.43313650873e-28
3.61105071152e-08
6.78541758014e-08
1.12832272545e-08
4.27667754059e-10
3.6887958137e-11
5.40022181941e-12
9.62987792503e-13
1.67747470103e-13
2.5329841752e-14
3.22528833173e-15
3.48355510028e-16
3.24376870453e-17
2.59438155253e-18
1.79696108311e-19
1.08743860913e-20
5.8154070529e-22
2.7886095421e-23
1.222608853e-24
4.45009246279e-26
8.09679870186e-28
4.89254254978e-08
3.85286777515e-07
1.60506868987e-08
1.4985504374e-09
1.91953591806e-10
1.98924659394e-11
2.75416739387e-12
4.33364280538e-13
6.50941587549e-14
8.56079291635e-15
9.67182975559e-16
9.50015838209e-17
7.9404769513e-18
5.7313558203e-19
3.59505356465e-20
1.97832445815e-21
9.66399715369e-23
4.25138551988e-24
1.50434424814e-25
2.5147628061e-27
9.49946319461e-08
7.65906580604e-07
5.85460335475e-08
2.06458247155e-09
2.22637075602e-10
2.77635227929e-11
4.61647259541e-12
8.24000920593e-13
1.3716122086e-13
1.96607231618e-14
2.39597858538e-15
2.4771943622e-16
2.19731294001e-17
1.66879136997e-18
1.09245400072e-19
6.21873710802e-21
3.10809640999e-22
1.37702733647e-23
4.75497013871e-25
7.34068891847e-27
1.23237692262e-07
1.08986197188e-06
1.01476455881e-06
1.05847373462e-08
2.82507474686e-10
2.96531284342e-11
5.86944671519e-12
1.24446703744e-12
2.39032509533e-13
3.86086836995e-14
5.17310699534e-15
5.78031871703e-16
5.50210024332e-17
4.43566271145e-18
3.05158848415e-19
1.80710592689e-20
9.28626182268e-22
4.16246452512e-23
1.40963692592e-24
2.02581885783e-26
1.8692540833e-07
1.95093343854e-06
7.01634582233e-06
7.81975886719e-08
1.63611646526e-09
7.60890812756e-11
1.00296893417e-11
1.96710514256e-12
3.96910581633e-13
6.98109317853e-14
1.01938079366e-14
1.23384563644e-15
1.27025536841e-16
1.08731000174e-17
7.88202186041e-19
4.87319130938e-20
2.58535648872e-21
1.17781687941e-22
3.93330221128e-24
5.31322521517e-26
1.71773271399e-07
1.48805405652e-06
4.25170348741e-06
1.51846908664e-07
4.06188292609e-09
2.18647500272e-10
2.13586036296e-11
3.47379315123e-12
6.68430236326e-13
1.21633351165e-13
1.89154180411e-14
2.46025703562e-15
2.70148924005e-16
2.46377363762e-17
1.88848043611e-18
1.22346817881e-19
6.72848972629e-21
3.13007036558e-22
1.03665155286e-23
1.33022922909e-25
1.44069676152e-07
1.09495182445e-06
1.51208619379e-06
1.10420408559e-07
2.81171505458e-09
1.83496948912e-10
2.1420316745e-11
4.33564016136e-12
9.46000965494e-13
1.89541668433e-13
3.21142362902e-14
4.50919223138e-15
5.26645404861e-16
5.15919891526e-17
4.20497860647e-18
2.86766225805e-19
1.64209923353e-20
7.83828564386e-22
2.5894273084e-23
3.19088632775e-25
1.16183501596e-07
7.56310001093e-07
7.24380248054e-07
1.10157827424e-07
1.7952640424e-09
9.85426339627e-11
1.4883409319e-11
4.20306834335e-12
1.12569260033e-12
2.6007200944e-13
4.93034362987e-14
7.59658605783e-15
9.57842214661e-16
1.01042686091e-16
8.76850077778e-18
6.31060801071e-19
3.77543829734e-20
1.85704700159e-21
6.15221408156e-23
7.35841615427e-25
9.69711847974e-08
5.54347366647e-07
5.51652187004e-07
9.59796566055e-07
1.21348353246e-08
2.0885479902e-10
1.31097511792e-11
3.84133505e-12
1.22500148735e-12
3.2673359484e-13
6.9785537371e-14
1.18796398025e-14
1.63063735861e-15
1.86690888068e-16
1.72482287491e-17
1.31167648454e-18
8.21883640431e-20
4.18048278237e-21
1.39544597012e-22
1.63646021937e-24
9.37249050681e-08
4.99737741111e-07
6.590082336e-07
3.1591629294e-06
5.25812033186e-08
1.11890239577e-09
4.66195143547e-11
5.95456359112e-12
1.52589754804e-12
4.16748842279e-13
9.61613331248e-14
1.77931104725e-14
2.64726343332e-15
3.25321330742e-16
3.2099850817e-17
2.58556010723e-18
1.70115126423e-19
8.9767215424e-21
3.03192029975e-22
3.51915684339e-24
1.04847967369e-07
5.26073079309e-07
9.54792803046e-07
7.74199159802e-06
3.23338000608e-07
8.04625771625e-09
3.20424925641e-10
2.30523886758e-11
3.28165600806e-12
6.65106703872e-13
1.42605535646e-13
2.68890731232e-14
4.20774077455e-15
5.40284579152e-16
5.69205727212e-17
4.86041783099e-18
3.36366537234e-19
1.84604431837e-20
6.33124005613e-22
7.33549344466e-24
1.22885277722e-07
5.31630517065e-07
9.82497092478e-07
5.66547320154e-06
3.93172061499e-07
7.92013518247e-09
2.78083377373e-10
2.07921783165e-11
3.97257563179e-12
8.99829283517e-13
2.01844003838e-13
3.96655893913e-14
6.50113017687e-15
8.75097321592e-16
9.74799360664e-17
8.79060408186e-18
6.39385729045e-19
3.653163647e-20
1.27530224697e-21
1.48578717545e-23
1.39140346416e-07
4.78639294925e-07
7.84024643577e-07
2.58635212698e-06
2.6567284806e-07
5.03418344136e-09
1.50655713188e-10
1.23101099904e-11
3.46677681621e-12
9.99133090637e-13
2.56021993567e-13
5.49237346624e-14
9.62043674607e-15
1.37065991134e-15
1.62260660799e-16
1.53920272768e-17
1.17465268166e-18
6.98698649864e-20
2.48652564053e-21
2.93103401289e-23
1.51359287208e-07
4.0901329798e-07
6.01214892157e-07
1.27617865212e-06
5.09430869872e-07
1.15320061134e-08
2.73440320612e-10
1.32645955774e-11
2.96093071041e-12
1.00869097315e-12
2.97812309546e-13
7.11672924917e-14
1.35323906008e-14
2.06237134045e-15
2.60893399837e-16
2.60701992104e-17
2.0887243155e-18
1.29432824455e-19
4.70277901666e-21
5.63880414401e-23
1.6021790105e-07
3.51962560523e-07
4.90772635471e-07
8.1995154146e-07
1.31684136737e-06
5.18026750829e-08
1.36676557099e-09
6.0334424431e-11
5.39155033668e-12
1.21265808121e-12
3.48669276968e-13
8.90900340588e-14
1.82645640816e-14
2.98658223152e-15
4.0068025362e-16
4.24777021826e-17
3.58694841176e-18
2.3213770456e-19
8.62982429416e-21
1.05766410835e-22
1.67749369862e-07
3.18367223353e-07
4.5109371736e-07
7.37244783157e-07
3.42898490832e-06
1.99526604354e-07
4.07470201798e-09
1.34182535524e-10
8.52539366911e-12
1.53355258782e-12
4.11584316266e-13
1.08897480731e-13
2.38120678503e-14
4.16500720255e-15
5.8594889846e-16
6.63583538804e-17
5.93513641869e-18
4.02536153315e-19
1.53512992663e-20
1.93161314345e-22
1.75871192929e-07
3.05490783394e-07
4.52611950328e-07
7.62528030965e-07
4.57838423085e-06
3.45204154258e-07
6.57897139226e-09
1.65003963534e-10
8.74401293866e-12
1.6256807783e-12
4.55928166144e-13
1.27814576594e-13
2.98933037602e-14
5.57934012183e-15
8.30685168682e-16
1.00062648776e-16
9.48415970949e-18
6.75264165876e-19
2.64661356675e-20
3.43120361079e-22
1.83775805319e-07
3.02064585452e-07
4.56624979228e-07
7.52798834959e-07
4.32656223848e-06
3.66203377409e-07
9.10598407003e-09
1.94246958964e-10
8.36705873632e-12
1.55256709333e-12
4.75430220936e-13
1.43996834748e-13
3.62627801797e-14
7.23871456166e-15
1.14411838904e-15
1.46793741619e-16
1.47068620068e-17
1.09870115955e-18
4.42740206672e-20
5.92860717472e-22
1.89622307141e-07
2.99428359268e-07
4.46719515312e-07
7.02690649432e-07
3.59883742182e-06
3.86011240023e-07
6.1592853464e-08
1.29274906682e-09
4.20709736109e-11
3.5180358033e-12
6.57729819044e-13
1.7385054132e-13
4.42875702659e-14
9.26270758212e-15
1.54402137e-15
2.10960487029e-16
2.2245200367e-17
1.73999981077e-18
7.20231761414e-20
9.97491873159e-22
1.9274085073e-07
2.95316914893e-07
4.25530220558e-07
6.34239596127e-07
2.81830907568e-06
6.35594037736e-07
3.91633058438e-08
1.15775848461e-09
4.94881939492e-11
4.20488872092e-12
8.14280396004e-13
2.09516301313e-13
5.40766236216e-14
1.17471363771e-14
2.05327290343e-15
2.96572334821e-16
3.28699070321e-17
2.68760313818e-18
1.1413160914e-19
1.63587774011e-21
1.93723804788e-07
2.90079733072e-07
4.00200991754e-07
5.6941584698e-07
2.19460881778e-06
1.27355017424e-06
8.24950796674e-08
1.883025654e-09
6.42376974596e-11
4.22154725661e-12
8.60471234825e-13
2.35379198668e-13
6.38814868632e-14
1.45943473283e-14
2.68318378244e-15
4.03644026083e-16
4.7255144517e-17
4.04404762598e-18
1.76136134516e-19
2.61409164875e-21
1.94287949884e-07
2.8569401135e-07
3.77851684032e-07
5.25241166037e-07
1.80785365008e-06
2.0612784929e-06
1.59113376344e-07
3.72492387396e-09
9.39801607956e-11
4.6722660401e-12
8.55938651046e-13
2.48005612172e-13
7.21627540815e-14
1.76067868597e-14
3.4235377416e-15
5.33341637381e-16
6.60435819371e-17
5.92160686558e-18
2.64479574641e-19
4.06563234087e-21
1.96356564688e-07
2.83801887527e-07
3.61557706934e-07
5.02099341309e-07
1.58868428765e-06
2.54078088031e-06
2.16383556249e-07
1.23931462147e-08
2.7532610011e-10
9.60284760843e-12
1.10110319272e-12
2.73142069429e-13
8.03255320641e-14
2.07436339397e-14
4.2532869871e-15
6.921529249e-16
9.01479407628e-17
8.45114715579e-18
3.86510756939e-19
6.15209488996e-21
2.0099487097e-07
2.83976069406e-07
3.49891496183e-07
4.91627385899e-07
1.45537104631e-06
2.757791861e-06
2.45715521291e-07
1.06650018937e-08
2.99744503261e-10
1.24866626225e-11
1.25033793165e-12
2.93701165556e-13
8.74801678527e-14
2.37969770012e-14
5.16617290341e-15
8.81649155913e-16
1.20741365841e-16
1.17889176603e-17
5.50592452508e-19
9.06550394161e-21
2.07890296633e-07
2.83922788009e-07
3.3943771123e-07
4.83505258799e-07
1.34210117507e-06
2.80590220568e-06
2.76832683001e-07
1.4925263716e-08
4.09832056644e-10
1.69175047339e-11
1.32811670171e-12
3.00338914212e-13
9.21405343376e-14
2.65372569167e-14
6.1156800271e-15
1.09919704285e-15
1.59135521453e-16
1.61114270904e-17
7.65899860122e-19
1.30275547041e-20
2.16408162214e-07
2.82813894406e-07
3.30457787809e-07
4.78554501749e-07
1.25187653595e-06
2.6964555555e-06
4.38682660467e-07
2.84982852302e-08
7.60193361517e-10
2.75555364156e-11
1.61660055334e-12
3.08537971897e-13
9.44792620274e-14
2.87838213762e-14
7.05172437104e-15
1.33946671586e-15
2.0533523486e-16
2.15506077559e-17
1.04062284035e-18
1.82693171987e-20
2.25700769251e-07
2.80760026654e-07
3.24227749117e-07
4.79306639805e-07
1.18904772257e-06
2.52490050435e-06
6.5957300191e-07
5.0075951257e-08
1.68792576056e-09
4.90625331125e-11
2.27054041643e-12
3.35504582131e-13
9.68988079286e-14
3.06204456016e-14
7.95489762394e-15
1.59934265787e-15
2.57865064515e-16
2.8140526776e-17
1.37970033563e-18
2.49976561715e-20
2.34490164092e-07
2.78248201808e-07
3.21762899272e-07
4.87505141436e-07
1.15358987534e-06
2.36153786959e-06
8.60309372054e-07
7.2702281679e-08
8.75890800896e-09
1.90719477175e-10
6.02570623117e-12
5.46026575592e-13
1.1394408557e-13
3.33582782941e-14
8.93784013749e-15
1.88633316696e-15
3.13343852774e-16
3.5760821071e-17
1.78224149957e-18
3.33493262568e-20
2.41299844729e-07
2.75955319065e-07
3.23752225042e-07
5.03452737674e-07
1.13847804074e-06
2.21312754246e-06
1.01476286949e-06
9.13258340982e-08
4.50717042472e-09
1.55108552768e-10
6.92305183293e-12
6.32917174593e-13
1.2869255897e-13
3.64558706034e-14
1.0028003738e-14
2.20498498682e-15
3.74791990746e-16
4.44485474726e-17
2.24710237463e-18
4.34253375583e-20
2.45397971654e-07
2.74935611651e-07
3.30843767106e-07
5.2657843464e-07
1.13450897106e-06
2.06960147267e-06
1.13175695259e-06
1.06976398707e-07
5.34069169999e-09
1.95371103743e-10
9.22717334975e-12
6.93176290039e-13
1.37471684453e-13
3.89147240425e-14
1.11113630246e-14
2.53995227028e-15
4.44448301493e-16
5.43090484287e-17
2.77369903912e-18
5.53044112494e-20
2.47686546622e-07
2.76787616398e-07
3.44073710961e-07
5.56965529526e-07
1.13766798416e-06
1.93877166394e-06
1.20358287475e-06
1.19034693238e-07
7.02865811163e-09
3.00837479642e-10
1.38919121196e-11
8.08080257907e-13
1.4277595194e-13
4.05643377097e-14
1.20319525818e-14
2.87754339746e-15
5.21408241097e-16
6.53620833406e-17
3.35987135817e-18
6.90385320392e-20
2.50605337185e-07
2.83547096153e-07
3.64815253259e-07
5.94784341297e-07
1.14495390578e-06
1.81806725489e-06
1.23035333199e-06
1.26693932053e-07
8.65525207499e-09
5.4625998149e-10
2.28723267648e-11
1.08395052769e-12
1.5391697582e-13
4.18598992952e-14
1.28000445237e-14
3.20825058733e-15
6.04764332093e-16
7.76417227932e-17
4.00586218071e-18
8.47553003883e-20
2.5734082032e-07
2.97455232861e-07
3.94495449775e-07
6.39748953647e-07
1.15367956323e-06
1.70574873887e-06
1.22119249681e-06
1.30915366561e-07
1.00148953367e-08
1.56436675596e-09
4.837955473e-11
1.84920409299e-12
1.9077198206e-13
4.46316980544e-14
1.35466043257e-14
3.53046399842e-15
6.94226028711e-16
9.17224370955e-17
4.73050499438e-18
1.02957582001e-19
2.71121478617e-07
3.20741686499e-07
4.34250777549e-07
6.90825164876e-07
1.16155130357e-06
1.60124271784e-06
1.18570688993e-06
1.41740739613e-07
1.15968588346e-08
1.2951144006e-09
6.62456190139e-11
3.00050335237e-12
2.51041144899e-13
4.98475082661e-14
1.43849564615e-14
3.8501532163e-15
7.9004436274e-16
1.07665192486e-16
5.5506512386e-18
1.24348967718e-19
2.94878767856e-07
3.55348999811e-07
4.84445560066e-07
7.45879997275e-07
1.16606862112e-06
1.50264129344e-06
1.13042717197e-06
1.60281582179e-07
1.37920255918e-08
6.99068162575e-10
8.56265464931e-11
4.77141601126e-12
3.24680299683e-13
5.66751612704e-14
1.53963370163e-14
4.17447974836e-15
8.92374851461e-16
1.25428074926e-16
6.47783373214e-18
1.49700501962e-19
3.30997938818e-07
4.02441448861e-07
5.44074484495e-07
8.0134971673e-07
1.16409230406e-06
1.40715305393e-06
1.06067653776e-06
1.77178506952e-07
1.60734820115e-08
7.88547241148e-10
1.25976107275e-10
7.68386895412e-12
4.28520170627e-13
6.50853569762e-14
1.65473747295e-14
4.5000101359e-15
1.00052751132e-15
1.44843707067e-16
7.51959971405e-18
1.79923745747e-19
3.8081363309e-07
4.61670675946e-07
6.10158613511e-07
8.5235322847e-07
1.15263428108e-06
1.31263878282e-06
9.76834108061e-07
1.86070005926e-07
1.77617785402e-08
9.70330328498e-10
1.61432583878e-10
1.26611791105e-11
6.05347045767e-13
7.69517428989e-14
1.79133116256e-14
4.83020948557e-15
1.11397880051e-15
1.65745776158e-16
8.68918364777e-18
2.16451034292e-19
4.43651864797e-07
5.30217493319e-07
6.77332264469e-07
8.93297400759e-07
1.12949916699e-06
1.21842552718e-06
8.89945701746e-07
1.85026546095e-07
1.84973322522e-08
1.12095801405e-09
2.42603788226e-10
1.87846474328e-11
9.12887065254e-13
9.57372376487e-14
1.99025847215e-14
5.20200609264e-15
1.23478091253e-15
1.8817643736e-16
1.00164494948e-17
2.61728680773e-19
5.15545742247e-07
6.0198731319e-07
7.38095683541e-07
9.18910144979e-07
1.09339237775e-06
1.1236993026e-06
8.01131818086e-07
1.73687616671e-07
1.81094621782e-08
1.20041828863e-09
3.73139721933e-10
2.76184739144e-11
1.54049464632e-12
1.31105168751e-13
2.33602658445e-14
5.70859135462e-15
1.37069560788e-15
2.12612649775e-16
1.15544787802e-17
3.19614517445e-19
5.88420746734e-07
6.67830601684e-07
7.84251232818e-07
9.25493061779e-07
1.04435031821e-06
1.02803573484e-06
7.1078314583e-07
1.53547003596e-07
1.66627060811e-08
1.18390121466e-09
2.93769801958e-10
3.35701657819e-11
2.63463837767e-12
1.93766232873e-13
2.91026661119e-14
6.48027565878e-15
1.53651121047e-15
2.40149611964e-16
1.3381536341e-17
3.95687149266e-19
6.51150539679e-07
7.17655183649e-07
8.09314821417e-07
9.11839605286e-07
9.83780780107e-07
9.31363833292e-07
6.19513423491e-07
1.27422196668e-07
1.4357114935e-08
1.07972199417e-09
1.55055177359e-10
3.66271107928e-11
4.12813349808e-12
2.65027018215e-13
3.62072179814e-14
7.51718608354e-15
1.74369351217e-15
2.72118560174e-16
1.55923945265e-17
4.97420501589e-19
6.93177711726e-07
7.44012923015e-07
8.10717700999e-07
8.79636501134e-07
9.14229851223e-07
8.33880861317e-07
5.28217072496e-07
9.84744017656e-08
1.15068158652e-08
9.91292193116e-10
1.02275397297e-10
4.19765385284e-11
6.10892898018e-12
3.99034353297e-13
4.69855252053e-14
8.97734849714e-15
2.01350413753e-15
3.10553575287e-16
1.83080192424e-17
6.34616717944e-19
7.09058083578e-07
7.45164500121e-07
7.9073197743e-07
8.33171324912e-07
8.39101821264e-07
7.36631842137e-07
4.39395736905e-07
7.42484984458e-08
8.9247758291e-09
8.85969176111e-10
8.72475568011e-11
5.11930270776e-11
8.69273455547e-12
6.42412190738e-13
6.490288526e-14
1.11648745955e-14
2.38225893201e-15
3.58670646597e-16
2.16918482855e-17
8.20012705391e-19
7.00750771807e-07
7.25430074741e-07
7.55171866162e-07
7.77726103241e-07
7.61039968916e-07
6.40008341865e-07
3.55646402115e-07
5.98569256812e-08
7.77702830374e-09
8.64756023794e-10
9.09260506339e-11
6.47853003556e-11
1.19943030994e-11
1.05022225974e-12
9.47871449759e-14
1.44885223042e-14
2.89545917513e-15
4.20588652052e-16
2.59464490351e-17
1.06955461668e-18
6.75788767712e-07
6.9240448493e-07
7.10477780827e-07
7.1710086939e-07
6.80491641173e-07
5.4327256902e-07
2.77765129418e-07
5.00453623124e-08
7.19734114536e-09
8.91091623698e-10
1.03945011696e-10
7.95584698319e-11
1.60791323573e-11
1.73444505702e-12
1.29037962136e-13
1.84313525953e-14
3.52794427994e-15
4.96905211753e-16
3.12017984632e-17
1.4009300969e-18
6.42346557489e-07
6.52619104823e-07
6.60577156891e-07
6.52010947762e-07
5.95637626936e-07
4.45010933123e-07
2.04501817812e-07
3.9931555591e-08
6.38671065977e-09
8.84247783662e-10
1.15932479046e-10
8.77049080457e-11
2.0572150123e-11
2.66886963947e-12
1.95331436869e-13
2.45053835239e-14
4.32723655579e-15
5.89201635305e-16
3.75868891685e-17
1.83552107718e-18
6.04603397979e-07
6.08298202707e-07
6.05300144459e-07
5.80210449177e-07
5.03992146422e-07
3.45225747516e-07
1.36111152399e-07
2.90299133292e-08
5.17333825301e-09
8.02842863461e-10
1.18659538142e-10
8.5527285193e-11
2.44912833925e-11
3.8979148579e-12
3.07398204889e-13
3.41515740849e-14
5.38785240847e-15
7.00515470228e-16
4.52785558271e-17
2.40271190981e-18
5.61169856522e-07
5.56895340275e-07
5.41144914139e-07
4.9839607157e-07
4.04839810548e-07
2.47439817695e-07
7.82164934362e-08
1.84411202425e-08
3.6806604192e-09
6.43309351408e-10
1.07802574813e-10
7.48485804923e-11
2.72335332353e-11
5.42036671066e-12
4.9302033178e-13
4.90467009523e-14
6.88375308674e-15
8.38635308294e-16
5.46651656251e-17
3.15011598098e-18
5.06809653466e-07
4.93421455478e-07
4.64254325463e-07
4.05607766606e-07
3.02417932126e-07
1.61534609097e-07
4.72426479661e-08
1.18950321165e-08
2.58858838012e-09
4.98935684492e-10
9.30627873013e-11
6.183856013e-11
2.87887573281e-11
7.22552694482e-12
7.82642557138e-13
7.18991128792e-14
8.91160537672e-15
1.00903075792e-15
6.63003735435e-17
4.156143571e-18
4.34812888442e-07
4.12460373942e-07
3.71586195665e-07
3.02520221116e-07
2.01143420376e-07
8.90483088161e-08
2.76684308637e-08
7.49691157534e-09
1.77828354253e-09
3.75987425866e-10
7.75905821198e-11
5.0379664755e-11
2.94670484906e-11
9.08616886308e-12
1.18481485672e-12
1.05890704575e-13
1.15869845725e-14
1.21652016942e-15
8.10149091512e-17
5.55262226755e-18
3.41583452244e-07
3.12796315736e-07
2.65653473319e-07
1.96601288862e-07
1.12514551073e-07
4.34415053789e-08
1.4682104563e-08
4.34676687734e-09
1.13438744422e-09
2.64656954396e-10
6.10849964956e-11
4.10888540802e-11
2.94149008572e-11
1.07574911738e-11
1.76234700474e-12
1.58823407386e-13
1.51973646248e-14
1.47129618653e-15
1.00227936428e-16
7.56457248626e-18
2.30519627392e-07
2.00662818028e-07
1.56500007134e-07
1.00937770684e-07
4.78248959116e-08
1.97805591655e-08
7.23107368492e-09
2.33248165185e-09
6.68947660044e-10
1.72316176606e-10
4.51038425975e-11
3.35058098516e-11
2.86240350409e-11
1.20437478567e-11
2.45582986004e-12
2.21632575608e-13
1.96790328381e-14
1.77350099856e-15
1.25692756867e-16
1.05898666455e-17
1.19402763288e-07
9.63717831526e-08
6.6589284941e-08
3.72763773334e-08
1.86623850062e-08
8.3175628297e-09
3.29613236539e-09
1.16264535465e-09
3.66944054686e-10
1.04721362881e-10
3.15724056402e-11
2.68871353511e-11
2.7779083264e-11
1.32559249442e-11
3.28407571867e-12
3.27402617417e-13
2.46861711676e-14
2.0598967353e-15
1.56774585152e-16
1.52003230361e-17
3.3074872917e-33
1.37329301443e-34
1.56086887423e-32
1.05653397426e-33
8.50729563284e-32
8.18493818844e-33
3.77336077429e-31
3.30288265375e-32
1.40071846126e-30
1.03946875444e-31
4.63339779347e-30
2.91416423583e-31
1.41569775019e-29
7.590918812e-31
4.06161771724e-29
1.86786681519e-30
1.10572564683e-28
4.38210295742e-30
2.88113124763e-28
9.86593280845e-30
7.23153140148e-28
2.14025864642e-29
1.75597697881e-27
4.79000971383e-29
4.13613706361e-27
1.0980505703e-28
9.46789040733e-27
2.48092157039e-28
2.10960505503e-26
5.49104316457e-28
4.58255480558e-26
1.19076420427e-27
9.71713378035e-26
2.53108498013e-27
2.01375374784e-25
5.27568267733e-27
4.08401029472e-25
1.07903181972e-26
8.11398352063e-25
2.16838184717e-26
1.57981521327e-24
4.27548819123e-26
3.0118727847e-24
8.25084028532e-26
5.61188059891e-24
1.55528680007e-25
1.02023460933e-23
2.85868576855e-25
1.80849287262e-23
5.12038924737e-25
3.12561877033e-23
8.9479392044e-25
5.26882527731e-23
1.52353716397e-24
8.65614595225e-23
2.52546740335e-24
1.38411086573e-22
4.0704339058e-24
2.15271832947e-22
6.37582633855e-24
3.25892049765e-22
9.71391745283e-24
4.80888957587e-22
1.44187859216e-23
6.92285865206e-22
2.08780656574e-23
9.724847259e-22
2.95137033747e-23
1.33261164295e-21
4.07597201526e-23
1.7832607561e-21
5.51487034924e-23
2.33514782183e-21
7.3505718374e-23
3.00004100541e-21
9.74030561169e-23
3.79739900577e-21
1.30345849699e-22
4.77180406359e-21
1.80478544124e-22
5.99708391917e-21
2.65336270321e-22
7.58559276593e-21
4.21381283159e-22
9.71933655632e-21
7.22603631102e-22
1.27174151461e-20
1.31447342564e-21
1.7140666642e-20
2.47147668974e-21
2.39308569226e-20
4.68759740049e-21
3.4587155888e-20
8.80658713227e-21
5.13713524177e-20
1.61907294242e-20
7.75406118442e-20
2.89157469637e-20
1.17591086491e-19
4.997705787e-20
1.77484046803e-19
8.34993662809e-20
2.648697566e-19
1.35011933962e-19
3.89750410947e-19
2.11951382407e-19
5.66133793317e-19
3.24898493754e-19
8.15542189224e-19
4.90129604098e-19
1.17279258491e-18
7.33718805273e-19
1.69806308259e-18
1.10124139884e-18
2.49345170136e-18
1.66856733445e-18
3.7470153216e-18
2.56499376218e-18
6.17727446098e-18
4.5887395884e-18
)
;

boundaryField
{
    inletfuel
    {
        type            fixedValue;
        value           uniform 0;
    }
    inletair
    {
        type            fixedValue;