/*--------------------------------*- C++ -*----------------------------------*\
  =========                 |
  \\      /  F ield         | OpenFOAM: The Open Source CFD Toolbox
   \\    /   O peration     | Website:  https://openfoam.org
    \\  /    A nd           | Version:  dev
     \\/     M anipulation  |
\*---------------------------------------------------------------------------*/
FoamFile
{
    version     2.0;
    format      ascii;
    class       volScalarField;
    location    "0.3";
    object      C2H6;
}
// * * * * * * * * * * * * * * * * * * * * * * * * * * * * * * * * * * * * * //

dimensions      [0 0 0 0 0 0 0];

internalField   nonuniform List<scalar> 
1629
(
3.50265404208e-19
3.27851839147e-19
2.59318309449e-19
4.89322869143e-17
6.51417637572e-17
1.08765096739e-16
3.73757279767e-15
7.53782099771e-15
2.62402210288e-14
2.15804262318e-13
6.42124507805e-13
4.19698440841e-12
9.46728708865e-12
3.02885035593e-11
1.64740569375e-10
3.98396424144e-10
1.39442198471e-09
6.86902511912e-09
1.33394259252e-08
4.77891749902e-08
2.13257661363e-07
2.87849251623e-07
1.00855392851e-06
4.32866347867e-06
1.90255524705e-06
5.44728623026e-06
1.88536368348e-05
6.78467206973e-06
1.54945420393e-05
4.23748428657e-05
1.69594640708e-05
3.17871871362e-05
7.09758503659e-05
3.39122313506e-05
5.4468564382e-05
0.000103838002465
5.88670898625e-05
8.46224076816e-05
0.000144038686878
9.22987262502e-05
0.000122281422941
0.000189763443841
0.000133598385059
0.00016635126236
0.000238574658004
0.000181601387121
0.000215760448594
0.000290108835603
0.000235525654906
0.00027034789896
0.000345896416515
0.000294980453469
0.000330095662554
0.000406292797163
0.000359400858389
0.000394373197853
0.000470089201461
0.000427668390457
0.000461843210361
0.0005354180099
0.000498237682855
0.000530882594082
0.000600682953213
0.000569607196234
0.00060013291849
0.000665022152776
0.000640645368955
0.000668702908862
0.000728103497881
0.000710469327644
0.000735891082235
0.000789565500356
0.000778205850897
0.000800912204131
0.000848756046125
0.000843039985991
0.000863023297485
0.000905067961257
0.000904428879879
0.000921786282893
0.000958286073787
0.000962080737853
0.000976994671023
0.00100836852199
0.00101573959989
0.00102841672867
0.00105510514089
0.00106502358488
0.00107565017576
0.00109803254978
0.00110947937502
0.00111822294637
0.00113663879329
0.00114875125439
0.00115578868837
0.00117060562389
0.00118265310949
0.00118818215569
0.00119981769359
0.00121112888665
0.00121535376261
0.00122423731729
0.0012341384585
0.00123724039367
0.00124374565428
0.00125158729457
0.00125371302527
0.00125813967386
0.00126335466074
0.00126462677439
0.00126722725391
0.00126937601867
0.00126990559362
0.00127091227057
0.0012696895204
0.00126957981542
0.00126921009405
0.00126439921835
0.00126374023471
0.00126218343958
0.00125355519932
0.00125241556356
0.00124981499835
0.00123703134319
0.0012354532847
0.00123189456579
0.00121444546702
0.00121244300295
0.00120795099353
0.0011850957397
0.00118265567733
0.00117719669526
0.00114783888782
0.00114492279439
0.00113840967555
0.00110082501665
0.00109737261717
0.00108967356687
0.00104116187805
0.00103710606486
0.00102807993169
0.000964863961864
0.000960173902984
0.000949767279583
0.000867822089809
0.000862581898597
0.000851000884298
0.000748532918744
0.000743021567915
0.000730898662796
0.000611793201665
0.000606477816481
0.000594843263559
0.000469906001903
0.000465288312478
0.00045522599577
0.000338556251684
0.000334960143192
0.000327151243317
0.000229961461794
0.00022742979029
0.000221944068074
0.000148753649991
0.000147109780119
0.000143550209823
9.2633002859e-05
9.16205794678e-05
8.94274443072e-05
5.58255624804e-05
5.52184356305e-05
5.39020944799e-05
3.23738951024e-05
3.20152170137e-05
3.12371567462e-05
1.7733693061e-05
1.75273682362e-05
1.70799521642e-05
8.92465679553e-06
8.81317889682e-06
8.57177260468e-06
4.00358318014e-06
3.94956004954e-06
3.83282551286e-06
1.56395299405e-06
1.54140791906e-06
1.49281398302e-06
5.25031149002e-07
5.17032040518e-07
4.99834005832e-07
2.20120840241e-11
6.3444643504e-10
2.2471078823e-08
6.70380914644e-07
1.51626385951e-05
5.65443737235e-05
0.00010297134967
0.000144310669736
0.000186213864115
0.000239455661017
0.000293566348895
0.000344995504096
0.000396770146765
0.000453564360303
0.000514502356685
0.000576563175369
0.000637333335804
0.00069590953908
0.000752530227283
0.000807587301068
0.000860979366726
0.000912107123569
0.000960537550757
0.0010063570266
0.00104968294394
0.00109025648623
0.00112749904595
0.00116085254903
0.00119005392318
0.0012150610745
0.00123584402847
0.0012521917653
0.00126379898936
0.00127041986131
0.00127194125879
0.00126836185679
0.00125970627424
0.00124589292075
0.00122663184214
0.00120136837474
0.00116923554699
0.00112894126652
0.0010785151444
0.00101505042592
0.000934829871918
0.000834500864652
0.000713775880741
0.000578556456254
0.000441253199546
0.000316374880184
0.000214402123622
0.000138662182564
8.64134645185e-05
5.20903371682e-05
3.0165318253e-05
1.6464046514e-05
8.24031776835e-06
3.67317644531e-06
1.4266586354e-06
4.76527120275e-07
1.49593818914e-16
7.09258124965e-16
1.68719942317e-15
2.37451454479e-15
1.93512657888e-15
1.03433631516e-15
3.96421833657e-16
1.1515590452e-16
2.65162383446e-17
4.96215867314e-18
7.64089858656e-19
9.76661011017e-20
1.04382458987e-20
9.39458694189e-22
7.17827855714e-23
4.70541774041e-24
2.68647891029e-25
1.3612859809e-26
6.20294610222e-28
1.43650654977e-29
3.87340113258e-15
1.24698862075e-14
3.37235683094e-14
5.1430578726e-14
3.89956305996e-14
1.85148552958e-14
6.22830403644e-15
1.59205623661e-15
3.26321383979e-16
5.48465399867e-17
7.64999097901e-18
8.93791362717e-19
8.81852210165e-20
7.40714518129e-21
5.3468360483e-22
3.35829969242e-23
1.86956426442e-24
9.44184629384e-26
4.2745669886e-27
9.73824836898e-29
1.86686359089e-13
1.41438481701e-13
4.06266894517e-13
6.57794324813e-13
4.58805702267e-13
1.9494621253e-13
5.8603759758e-14
1.35326463495e-14
2.53486710376e-15
3.91908982897e-16
5.0644648054e-17
5.52455174535e-18
5.13077719301e-19
4.09175206717e-20
2.83075887602e-21
1.72269851837e-22
9.41530696386e-24
4.76515308267e-25
2.16691630527e-26
4.65669445452e-28
1.13604646061e-11
2.06655415486e-12
4.59308593307e-12
6.77503699638e-12
4.27296446985e-12
1.66222726089e-12
4.60816097773e-13
9.96049150683e-14
1.75650605463e-14
2.57209002172e-15
3.16827944012e-16
3.315359065e-17
2.97180617477e-18
2.30118200908e-19
1.55527380735e-20
9.30971997458e-22
5.04691682542e-23
2.56552180041e-24
1.19447200825e-25
3.13532905454e-27
8.25632857065e-10
8.88202814995e-11
7.63254349377e-11
7.75969652215e-11
4.09725296323e-11
1.43098891466e-11
3.6345303205e-12
7.31603176236e-13
1.20882417768e-13
1.67424478247e-14
1.96940326836e-15
1.98523323311e-16
1.72745988242e-17
1.30731870166e-18
8.68842550682e-20
5.14506540807e-21
2.77757773617e-22
1.41917240322e-23
6.76145661506e-25
2.21879423392e-26
4.84338714277e-08
8.61930358208e-09
2.15246685991e-09
1.01397721122e-09
3.96221210626e-10
1.20714449969e-10
2.79373174702e-11
5.17108405382e-12
7.96183015441e-13
1.04199636356e-13
1.17270264749e-14
1.14286440719e-15
9.69646222306e-17
7.20478844537e-18
4.72841927429e-19
2.77907476015e-20
1.49620178792e-21
7.66547827877e-23
3.68147508025e-24
1.35774514134e-25
2.07340295475e-06
8.09925533774e-07
1.15246324838e-07
1.95470129687e-08
4.22093159703e-09
9.84433792816e-10
1.99350858104e-10
3.36507735526e-11
4.83566085343e-12
6.01435122221e-13
6.52376640609e-14
6.19309331357e-15
5.15917487631e-16
3.7864931366e-17
2.46571136099e-18
1.44286826544e-19
7.75211414902e-21
3.96605171648e-22
1.88742171966e-23
7.26999550454e-25
7.13739372312e-05
1.6014494541e-05
3.63197174997e-06
4.50134766892e-07
5.09719072477e-08
7.37914424758e-09
1.21861202863e-09
1.88032823751e-10
2.56929541752e-11
3.09836040367e-12
3.29702290586e-13
3.0935537672e-14
2.5597057206e-15
1.87214373977e-16
1.21746681748e-17
7.12191905555e-19
3.82236782769e-20
1.94568886368e-21
9.06277677996e-23
3.4625336091e-24
0.000237051440923
0.00207496840081
7.65782537793e-05
3.94984510575e-06
3.21536006715e-07
3.69334841954e-08
5.43311806941e-09
8.19156726155e-10
1.12581006314e-10
1.37308704804e-11
1.4775338713e-12
1.40017768243e-13
1.16869209172e-14
8.61349835394e-16
5.63792628839e-17
3.31347046346e-18
1.77989712356e-19
8.99689132798e-21
4.07353397983e-22
1.49384352252e-23
0.000326624519355
0.00151532782265
0.000140657476387
6.26275459128e-06
6.64349759688e-07
9.54966789507e-08
1.62158699797e-08
2.72184919655e-09
4.05114668428e-10
5.225888494e-11
5.85249665279e-12
5.71288641154e-13
4.87904567409e-14
3.66212452668e-15
2.43152615441e-16
1.44341413411e-17
7.78239710282e-19
3.90626754075e-20
1.71512341881e-21
5.93599314087e-23
0.000362453155598
0.00103424469729
0.000196569675666
1.79570369946e-05
2.34200588115e-06
3.21452679045e-07
5.13896977962e-08
8.63976686295e-09
1.33241860902e-09
1.79272416161e-10
2.08905886053e-11
2.11241530296e-12
1.86000852973e-13
1.43267720836e-14
9.71471670905e-16
5.85622408767e-17
3.1809320303e-18
1.58833450877e-19
6.76975244297e-21
2.19749862844e-22
0.00040839833539
0.00110484741172
8.37620877543e-05
2.41942401823e-05
4.94220670847e-06
8.13716693159e-07
1.34889631584e-07
2.34347956893e-08
3.80828046812e-09
5.41124592816e-10
6.63151192807e-11
7.01559960035e-12
6.42860296442e-13
5.12499263117e-14
3.57558555302e-15
2.20235739966e-16
1.21100690053e-17
6.0371514437e-19
2.50678469896e-20
7.63493157488e-22
0.000497314149859
0.00147374674856
0.000101070701118
3.04709154805e-05
7.12086926126e-06
1.39880105375e-06
2.61177851321e-07
4.98702645771e-08
8.9329138011e-09
1.38704970268e-09
1.83244290918e-10
2.06528034184e-11
1.9969673791e-12
1.6660273692e-13
1.20669350648e-14
7.64995608664e-16
4.28408724256e-17
2.14321436209e-18
8.71746131491e-20
2.5034489684e-21
0.000558816349655
0.00133536632923
0.000100344310649
3.79556090022e-05
8.94918755702e-06
2.00687964839e-06
4.22143682349e-07
8.92678494367e-08
1.77978145413e-08
3.06565397278e-09
4.43546547906e-10
5.40153825037e-11
5.57811776674e-12
4.91999663579e-13
3.73156849985e-14
2.45281631002e-15
1.4080199101e-16
7.11118342143e-18
2.85242309229e-19
7.78544080145e-21
0.000602336263569
0.00121944338977
0.000144560358501
6.52898155426e-05
1.37516848295e-05
3.18095230619e-06
6.87865923284e-07
1.51194879404e-07
3.23997624724e-08
6.10820163357e-09
9.66176944502e-10
1.27589264911e-10
1.41531106357e-11
1.32824603034e-12
1.06168032546e-13
7.28005899304e-15
4.30932865955e-16
2.21061709644e-17
8.80737896969e-19
2.30712689774e-20
0.000647990647402
0.00123184549181
0.00169760825622
6.94153918874e-05
1.96674009155e-05
4.93838558786e-06
1.10259364998e-06
2.4617542046e-07
5.52795947622e-08
1.1240848535e-08
1.93258644122e-09
2.76500454875e-10
3.30073000823e-11
3.30713123425e-12
2.79749192636e-13
2.01039305835e-14
1.23333535268e-15
6.46289239513e-17
2.57571580927e-18
6.54407215313e-20
0.000707082829762
0.00132692965253
0.00253176693909
0.000148814492822
2.90630160045e-05
6.81762962614e-06
1.57751783489e-06
3.67067329057e-07
8.70800664311e-08
1.9113188456e-08
3.5744277627e-09
5.54827587736e-10
7.14116377598e-11
7.65746132099e-12
6.87546813192e-13
5.19658273732e-14
3.3179565036e-15
1.78515992348e-16
7.16450754816e-18
1.78433940926e-19
0.000767542679632
0.00136345888448
0.00235946711115
0.000175387662489
3.7101701537e-05
8.50041512162e-06
2.05759381294e-06
5.07045831162e-07
1.2802177748e-07
3.03490876042e-08
6.17680754928e-09
1.04126920964e-09
1.44684208688e-10
1.66295449119e-11
1.58802644119e-12
1.26558857192e-13
8.43845961408e-15
4.68218453262e-16
1.90385084692e-17
4.69611309472e-19
0.000820923904057
0.00134856007593
0.00202174714856
0.000150910049829
4.79755548692e-05
1.08195674695e-05
2.72755669431e-06
6.99434198548e-07
1.84289906672e-07
4.64626522256e-08
1.01966644783e-08
1.85780947281e-09
2.78009710287e-10
3.42190760742e-11
3.47622560254e-12
2.92489629039e-13
2.04135047523e-14
1.17227423594e-15
4.85503838716e-17
1.19759041015e-18
0.000865804079053
0.0013158983537
0.00177595786823
0.00013594576131
6.91798376419e-05
1.63246553607e-05
4.2128272234e-06
1.05969130569e-06
2.75215144637e-07
7.11091491805e-08
1.64778887477e-08
3.20708509341e-09
5.1341809598e-10
6.74242168272e-11
7.2741069116e-12
6.46086114308e-13
4.72587724307e-14
2.81626235327e-15
1.19332851635e-16
2.96974703358e-18
0.000905110042941
0.00129085619114
0.0016561215809
0.000298669602052
2.79168532442e-05
1.91038808261e-05
5.94158913175e-06
1.58081681997e-06
4.10915971241e-07
1.07755801861e-07
2.60858391215e-08
5.38257297279e-09
9.17049266541e-10
1.28047565592e-10
1.46418860498e-11
1.37195507637e-12
1.0524714143e-13
6.52161697665e-15
2.8380018477e-16
7.18251520634e-18
0.000942237460742
0.00128066474017
0.00162079794166
0.000931717703657
6.15885894027e-05
2.60472881561e-05
7.65543654897e-06
2.13450075496e-06
5.75291605215e-07
1.56066669393e-07
3.97310120537e-08
8.71306329213e-09
1.58085303375e-09
2.34639259406e-10
2.84274230852e-11
2.81026254008e-12
2.26288441441e-13
1.46070678002e-14
6.55033429111e-16
1.69810441909e-17
0.000978415053508
0.00127753383447
0.00159026190619
0.00140444769198
0.000105269949955
3.32616070564e-05
9.39905295144e-06
2.73222197022e-06
7.69321465726e-07
2.17056983444e-07
5.81917456581e-08
1.35812812028e-08
2.62762930848e-09
4.14963432301e-10
5.33026835884e-11
5.56363703963e-12
4.70800707814e-13
3.17187123932e-14
1.47040252064e-15
3.93025020604e-17
0.0010133728243
0.00127549730344
0.00154503386753
0.00150615000416
0.00011546212718
4.38846339051e-05
1.2570056707e-05
3.73989418637e-06
1.06169371036e-06
3.02156462858e-07
8.37121602562e-08
2.06022532747e-08
4.23432438639e-09
7.10495567252e-10
9.67371071907e-11
1.06661393355e-11
9.49564111988e-13
6.68890555133e-14
3.21489110912e-15
8.91230147185e-17
0.00104639965726
0.00127303317934
0.00149742001413
0.00149158808813
0.000112355850376
1.34529890372e-05
1.29307602688e-05
4.74275950031e-06
1.43869036132e-06
4.16261390876e-07
1.1826488721e-07
3.04862822103e-08
6.63198229811e-09
1.18036101358e-09
1.70251583045e-10
1.98341648541e-11
1.85938355877e-12
1.37165580491e-13
6.85318310991e-15
1.98067684026e-16
0.00107753493863
0.00127240937112
0.00146299528855
0.0014848722775
0.000142654098342
1.09473423942e-05
1.407723609e-05
5.55398894273e-06
1.8077952488e-06
5.44477140205e-07
1.60479780988e-07
4.35096990327e-08
1.00413403038e-08
1.8986579849e-09
2.90452687051e-10
3.57911343682e-11
3.53761158086e-12
2.73740034173e-13
1.42522213747e-14
4.31409841475e-16
0.00110750205708
0.00127552440242
0.00144191910853
0.00147921451173
0.000256763644699
2.02838201712e-05
1.84216633662e-05
6.47247181879e-06
2.16692427387e-06
6.79440373926e-07
2.08843279567e-07
5.9730696453e-08
1.46632592987e-08
2.95302880709e-09
4.80120260285e-10
6.26852781731e-11
6.54269756499e-12
5.31948394973e-13
2.89267701108e-14
9.20746848221e-16
0.0011365418466
0.00128113951617
0.00142449530828
0.00145429385202
0.000436532594192
3.63568353844e-05
2.66069310277e-05
7.93215180845e-06
2.62361325399e-06
8.42153012476e-07
2.67039862992e-07
7.99882079458e-08
2.08171819416e-08
4.46139451597e-09
7.71118844979e-10
1.06750673996e-10
1.17775261495e-11
1.00742885501e-12
5.73262855914e-14
1.92531752042e-15
0.00116408473694
0.00128679920108
0.00140489637582
0.00141413136034
0.000604564400289
5.12168428151e-05
3.77615895137e-05
1.07543292783e-05
3.43337664902e-06
1.0879914413e-06
3.4563211436e-07
1.06421630172e-07
2.90677033617e-08
6.59652062382e-09
1.20926047407e-09
1.77334516642e-10
2.06788049586e-11
1.86194123795e-12
1.11013049759e-13
3.94447680711e-15
0.001189259756
0.00129107658203
0.0013840962347
0.00137475663336
0.000728755962195
5.95721751696e-05
9.97176563688e-06
1.05799385934e-05
4.17048268521e-06
1.39175434927e-06
4.46512742838e-07
1.40330426868e-07
3.99611235492e-08
9.56472142732e-09
1.85557425437e-09
2.87920172854e-10
3.54691092197e-11
3.36219704646e-12
2.10213688481e-13
7.9179773543e-15
0.00121145207029
0.00129375620163
0.00136436886284
0.00134288822289
0.000824844059354
7.08974766287e-05
6.34819396076e-06
1.06532882983e-05
4.71351388868e-06
1.68478310351e-06
5.57848252339e-07
1.80346996922e-07
5.36138947528e-08
1.35384120507e-08
2.78020368245e-09
4.56542506823e-10
5.94297341539e-11
5.93298099796e-12
3.89292493722e-13
1.55691560737e-14
0.00123055607004
0.00129542810878
0.00134740921123
0.00131857596361
0.000892369249309
8.79715709794e-05
7.87558913562e-06
1.29549311903e-05
5.33737980482e-06
1.98315039772e-06
6.78468161955e-07
2.25996496582e-07
7.01102721887e-08
1.86770949764e-08
4.061888075e-09
7.06337841414e-10
9.72163529138e-11
1.02275356572e-11
7.04837298362e-13
2.99718511729e-14
0.00124669055142
0.00129651501349
0.00133314679968
0.00129772850365
0.000926176514316
0.000109291003919
1.05188717486e-05
1.76470606011e-05
6.40738551968e-06
2.38155683808e-06
8.27535189307e-07
2.806743217e-07
9.01441024597e-08
2.52291352404e-08
5.80040198112e-09
1.06746010828e-09
1.5532885223e-10
1.72248694085e-11
1.24746732425e-12
5.6463316429e-14
0.00125980991304
0.00129662789767
0.00131964360797
0.00127510465337
0.000931934881514
0.000134623768423
1.22070666277e-05
3.53103764125e-06
5.91569588783e-06
2.70103364924e-06
9.93988155166e-07
3.4474710266e-07
1.14130728318e-07
3.34335886824e-08
8.10914693297e-09
1.57768156698e-09
2.42594019004e-10
2.83536916779e-11
2.15847276788e-12
1.04074892704e-13
0.00126945267417
0.00129444289614
0.0013036497464
0.00124532787928
0.000915305586357
0.000169454942522
1.53593905876e-05
1.48535768584e-06
5.25883050676e-06
2.89273367308e-06
1.14974696732e-06
4.12693745058e-07
1.41199666219e-07
4.32897229491e-08
1.10758575456e-08
2.27832003802e-09
3.7024723599e-10
4.56156531623e-11
3.65122325908e-12
1.87678868946e-13
0.00127508724248
0.00128906428719
0.00128456192309
0.00121180394899
0.000892328233909
0.000203857528171
1.90277098066e-05
1.56846230813e-06
4.70044754356e-06
2.9921893346e-06
1.28574470056e-06
4.80539437838e-07
1.70292709838e-07
5.4654143613e-08
1.47566230923e-08
3.21137701586e-09
5.51878771227e-10
7.17070031565e-11
6.03760718794e-12
3.3110348685e-13
0.0012763803537
0.00128025311526
0.00126299030332
0.00117720577067
0.000866132829689
0.000230373601243
2.22681605182e-05
2.01653689875e-06
4.5679163011e-06
3.06158227208e-06
1.41183644303e-06
5.4984482945e-07
2.01490195882e-07
6.75430906265e-08
1.9222979483e-08
4.42458473379e-09
8.04143466191e-10
1.10209911024e-10
9.76393901107e-12
5.71685179372e-13
0.00127320551226
0.00126801463342
0.00123923900961
0.00114151299059
0.000834679329067
0.000245701488592
2.47982854254e-05
2.37740646678e-06
3.48441967743e-06
3.01368917856e-06
1.5288784476e-06
6.23275388033e-07
2.3548805812e-07
8.21209906296e-08
2.45748395851e-08
5.97514228202e-09
1.14772395515e-09
1.65857185178e-10
1.54601223401e-11
9.66914950563e-13
0.00126553248722
0.00125228877027
0.00121304504925
0.00110362345207
0.00079711803942
0.000251584344645
2.68454507393e-05
2.5147370882e-06
6.62340289897e-07
2.67271878122e-06
1.60549482865e-06
6.96384697567e-07
2.7165203302e-07
9.82801390647e-08
3.08593294246e-08
7.91726509937e-09
1.60632065192e-09
2.44658767668e-10
2.39914106568e-11
1.6034071477e-12
0.00125329934395
0.00123281886025
0.00118373137802
0.0010623097946
0.000754090170245
0.000251350770737
2.88898696095e-05
2.76642522114e-06
2.92945936962e-07
2.28988749639e-06
1.63465817756e-06
7.61890078001e-07
3.07917689217e-07
1.15459803249e-07
3.79960763994e-08
1.02822098255e-08
2.20341927798e-09
3.53718864417e-10
3.64939083708e-11
2.60772737981e-12
0.00123627913846
0.00120905573303
0.0011502206155
0.00101607575239
0.000705532674326
0.000245037807421
3.06804788012e-05
3.04747860513e-06
2.80138632822e-07
1.87004554239e-06
1.61808675972e-06
8.16672110232e-07
3.42879816725e-07
1.33101014473e-07
4.5843806393e-08
1.30796823491e-08
2.96075443962e-09
5.01046728236e-10
5.4403951245e-11
4.15954640723e-12
0.00121400477144
0.00118015859225
0.00111118550353
0.000963494325758
0.000651527583553
0.000233210182701
3.19337931482e-05
3.28992308843e-06
3.06795258816e-07
1.37593648147e-06
1.55217719149e-06
8.5988853502e-07
3.76336899654e-07
1.50973929004e-07
5.43019226043e-08
1.63166139054e-08
3.90025418471e-09
6.95760237799e-10
7.95204240307e-11
6.50989165872e-12
0.00118573787678
0.00114502741708
0.00106518334183
0.000903445381253
0.00059265308086
0.00021675259685
3.24200546171e-05
3.44955894312e-06
3.1011247771e-07
6.5722077773e-07
1.4140541066e-06
8.88337411766e-07
4.08239460553e-07
1.69016430905e-07
6.33035893735e-08
2.00004631745e-08
5.04488387624e-09
9.48323459745e-10
1.14090943463e-10
1.00060396818e-11
0.00115044111035
0.0011023358027
0.00101080109554
0.000835389543849
0.000530193836511
0.000196813804139
3.19065141589e-05
3.5019405145e-06
3.00571113441e-07
1.26575237366e-07
1.22842678689e-06
8.98890750727e-07
4.37795155593e-07
1.86996677484e-07
7.27244012528e-08
2.41170419968e-08
6.41410828571e-09
1.26999588144e-09
1.60833893e-10
1.51184493015e-11
0.00110667989138
0.00105048123702
0.0009466887886
0.00075939404774
0.000465792641242
0.000174603498181
3.02918346902e-05
3.44022791844e-06
3.05400591943e-07
5.88575307357e-08
1.02854447876e-06
8.90165977945e-07
4.63548473761e-07
2.04415568331e-07
8.2333430178e-08
2.8608705363e-08
8.01682103743e-09
1.67145097743e-09
2.22839282954e-10
2.2462901132e-11
0.00105238846192
0.000987412009822
0.000871467238134
0.000675955649043
0.000400923763748
0.000151245915717
2.78193609379e-05
3.27675716931e-06
3.06026252574e-07
5.07435543943e-08
7.99419379194e-07
8.59380807575e-07
4.8416713578e-07
2.20813729887e-07
9.18788738924e-08
3.33865813363e-08
9.84981069363e-09
2.16176795095e-09
3.03444457138e-10
3.28203610656e-11
0.000984707027087
0.000910702897664
0.000784122013511
0.000586462382933
0.000337173026171
0.000127865009412
2.50927695203e-05
3.06154317123e-06
2.99492800393e-07
4.53136442345e-08
5.5173655372e-07
8.04132398704e-07
4.98587471428e-07
2.35968376589e-07
1.0118663715e-07
3.83609610998e-08
1.1902608284e-08
2.74859062515e-09
4.06224569822e-10
4.71656848089e-11
0.000900300435603
0.000818246916977
0.000684937535176
0.000493634523243
0.00027625328835
0.000105266938531
2.18289333351e-05
2.76361105265e-06
2.81891068862e-07
3.64105447629e-08
3.12472131594e-07
7.24565293292e-07
5.05608901219e-07
2.49768729425e-07
1.10158271543e-07
4.34513641189e-08
1.41604288748e-08
3.4383976121e-09
5.35029373774e-10
6.67029893912e-11
0.000796719750162
0.000709794268475
0.000576642489489
0.000401469417524
0.000219909978446
8.42158585745e-05
1.82743140832e-05
2.39900894728e-06
2.53951917106e-07
2.60573813137e-08
1.2454220153e-07
6.2583325867e-07
5.03849165872e-07
2.62021570803e-07
1.18713506269e-07
4.85749367514e-08
1.66012142811e-08
4.23559571774e-09
6.93842787529e-10
9.28820206517e-11
0.000674993218602
0.000588941309302
0.00046496563467
0.000314557405004
0.000169704564962
6.53459347116e-05
1.47189747444e-05
1.99986693695e-06
2.19394159351e-07
1.93927193826e-08
4.60362752624e-08
5.20239042019e-07
4.9243339697e-07
2.72411090838e-07
1.26761625951e-07
5.36385654356e-08
1.91916884754e-08
5.14086301087e-09
8.86410758e-10
1.27371402463e-10
0.000542072516079
0.000463988061134
0.000357690512295
0.000237045188838
0.000126737744272
4.90785085844e-05
1.14030023809e-05
1.59987074741e-06
1.8162234245e-07
1.60407101685e-08
2.93504334809e-08
4.13742971385e-07
4.70642778055e-07
2.80528096228e-07
1.34225318785e-07
5.85509898949e-08
2.18886923517e-08
6.15027200117e-09
1.11584280691e-09
1.71993653872e-10
0.000410258886057
0.000345964854304
0.000262326420019
0.000171762157963
9.1479383576e-05
3.55897869885e-05
8.48646023328e-06
1.22674020108e-06
1.43891752209e-07
1.46102563197e-08
2.4918532625e-08
3.10400049798e-07
4.3794901676e-07
2.8582622704e-07
1.41058835556e-07
6.32401250819e-08
2.46442133142e-08
7.25550623971e-09
1.38433170508e-09
2.28639991219e-10
0.000292648308299
0.000244543644818
0.000183823432483
0.000119773323408
6.37335229742e-05
2.48275883123e-05
6.05611705534e-06
9.45029839745e-07
1.1353998316e-07
1.33960251859e-08
2.11560887672e-08
2.17469482512e-07
3.9485833491e-07
2.87535814224e-07
1.47221663377e-07
6.76565727647e-08
2.74080971041e-08
8.44389732329e-09
1.6928735924e-09
2.99176336955e-10
0.000197869314095
0.000164770554758
0.000123572403903
8.04661770715e-05
4.2754946872e-05
1.65760251619e-05
4.13497032499e-06
7.04224029324e-07
9.26264677947e-08
1.23230018337e-08
1.67938684252e-08
1.4296069811e-07
3.43839502594e-07
2.84740325886e-07
1.52663505771e-07
7.1775250821e-08
3.01299237921e-08
9.69815253266e-09
2.04094013491e-09
3.85349180369e-10
0.000127960631968
0.000106595364008
8.00169093362e-05
5.20905242201e-05
2.75223793823e-05
1.05591033196e-05
2.7095969844e-06
5.02762722602e-07
7.41665357038e-08
1.09963345567e-08
1.26552610437e-08
9.03336236872e-08
2.88898225706e-07
2.76530580271e-07
1.57295995117e-07
7.55933841579e-08
3.2760221536e-08
1.09959136976e-08
2.42622352347e-09
4.88746455151e-10
7.98080013869e-05
6.65671067092e-05
4.99793380756e-05
3.24040433842e-05
1.69092059193e-05
6.40329459402e-06
1.70115832233e-06
3.42942155792e-07
5.65241498481e-08
9.35159211719e-09
9.47356137636e-09
5.8000480944e-08
2.34479297099e-07
2.62248964557e-07
1.60871419025e-07
7.90982985176e-08
3.52436492523e-08
1.23071984535e-08
2.84413552484e-09
6.1078233608e-10
4.81125687069e-05
4.00929474683e-05
2.99760066097e-05
1.92209020178e-05
9.83461848091e-06
3.68599877073e-06
1.01437272156e-06
2.22161644041e-07
4.07302689175e-08
7.57393512213e-09
7.29488709508e-09
3.93237087546e-08
1.85582704929e-07
2.42103931559e-07
1.62940312073e-07
8.22513699605e-08
3.75168349695e-08
1.35926402441e-08
3.28755566561e-09
7.52757123712e-10
2.78099070547e-05
2.30499039794e-05
1.70465110346e-05
1.07226236601e-05
5.35425458623e-06
2.00301881916e-06
5.70697204812e-07
1.35925723816e-07
2.76399802897e-08
5.86084207519e-09
5.87878671982e-09
2.86601675915e-08
1.45086516493e-07
2.17237637909e-07
1.6289424261e-07
8.49956238217e-08
3.95161299532e-08
1.48055374287e-08
3.74743112447e-09
9.15933924665e-10
1.51119833763e-05
1.23917779364e-05
9.00054449177e-06
5.51704919201e-06
2.69192354683e-06
1.01967077011e-06
3.0857742849e-07
7.97467108815e-08
1.79219905423e-08
4.41064381156e-09
4.96590783734e-09
2.23791249428e-08
1.13605676715e-07
1.8950607218e-07
1.60064310887e-07
8.72392191065e-08
4.11797847667e-08
1.58938222901e-08
4.2135166809e-09
1.10145525077e-09
7.51507844804e-06
6.07339264144e-06
4.31706128199e-06
2.5816042108e-06
1.2466489214e-06
4.80557951968e-07
1.5657379685e-07
4.4117558077e-08
1.10144665354e-08
3.25148548856e-09
4.34400626216e-09
1.83574083892e-08
8.94868776981e-08
1.61595632249e-07
1.54017799955e-07
8.88624367472e-08
4.24563448098e-08
1.68033120995e-08
4.67474618684e-09
1.30982525033e-09
3.32557601317e-06
2.64667127834e-06
1.8445961719e-06
1.08629901693e-06
5.26939147955e-07
2.12391004403e-07
7.46924698584e-08
2.29741534735e-08
6.4179806885e-09
2.38360873475e-09
3.88111263222e-09
1.55005365006e-08
7.09754096352e-08
1.35747599183e-07
1.44722486484e-07
8.97364534975e-08
4.33177843646e-08
1.74830114717e-08
5.11915902401e-09
1.53979017038e-09
1.28342812199e-06
1.00906482969e-06
6.94552114507e-07
4.07027389986e-07
2.0103191688e-07
8.72670966173e-08
3.32671450106e-08
1.12014771912e-08
3.56082639319e-09
1.77331713963e-09
3.50289466078e-09
1.32808955894e-08
5.6724229597e-08
1.13225220812e-07
1.32537936369e-07
8.96949796284e-08
4.37571941933e-08
1.78827965053e-08
5.52986651085e-09
1.78662578379e-09
4.26348103043e-07
3.31989897609e-07
2.26975842018e-07
1.35512066802e-07
7.16988264427e-08
3.35235755367e-08
1.38748961515e-08
5.15701787073e-09
1.92374123391e-09
1.34084834031e-09
3.06649080842e-09
1.11208271825e-08
4.50278906255e-08
9.37964498627e-08
1.18337141837e-07
8.84866950492e-08
4.36286819612e-08
1.79219566212e-08
5.87526027752e-09
2.03789942538e-09
2.07398435366e-26
4.04960507246e-26
2.62833082772e-26
4.61132888128e-26
7.45778968674e-26
9.10776856786e-26
2.93382584262e-25
2.58087218441e-25
1.11098362231e-24
7.12775418261e-25
3.91625617687e-24
1.98157198169e-24
1.30255450663e-23
5.51015023045e-24
4.13000660022e-23
1.52462999906e-23
1.25720335389e-22
4.18561317998e-23
3.69575152395e-22
1.13877758903e-22
1.05391263963e-21
3.06833917498e-22
2.92468114762e-21
8.18073942061e-22
7.91631282927e-21
2.1565045049e-21
2.09404232293e-20
5.61760900486e-21
5.42331433178e-20
1.44593863503e-20
1.3776421209e-19
3.67840428248e-20
3.43821443429e-19
9.25332693363e-20
8.44264590131e-19
2.30302852084e-19
2.04171920916e-18
5.67314135745e-19
4.86405886031e-18
1.383578178e-18
1.14137462504e-17
3.33709581195e-18
2.63686053039e-17
7.94677955815e-18
5.99298154768e-17
1.86603783088e-17
1.338806936e-16
4.3155235209e-17
2.93725786179e-16
9.81887423649e-17
6.32277974269e-16
2.19660722179e-16
1.3346386558e-15
4.82361005468e-16
2.76057926871e-15
1.03837372633e-15
5.59087837636e-15
2.18879905913e-15
1.10796281582e-14
4.51371312212e-15
2.14775056692e-14
9.10086375383e-15
4.07187898017e-14
1.79357663671e-14
7.55028075555e-14
3.45470399358e-14
1.3697353637e-13
6.50508153883e-14
2.43299868194e-13
1.19812198635e-13
4.23479285544e-13
2.16009748243e-13
7.22611436016e-13
3.81420060902e-13
1.20904004222e-12
6.59823229251e-13
1.98432259182e-12
1.1186989533e-12
3.19709385696e-12
1.86010529813e-12
5.06067531919e-12
3.03530214332e-12
7.87307732524e-12
4.86296027283e-12
1.20393301624e-11
7.65079550244e-12
1.80983815807e-11
1.18212571025e-11
2.67541804132e-11
1.79410053702e-11
3.89028487651e-11
2.67499033611e-11
5.56441886431e-11
3.91814879664e-11
7.8272705353e-11
5.63690119235e-11
1.08251164956e-10
7.96365582819e-11
1.47175868702e-10
1.10482357071e-10
1.96738435674e-10
1.50556612362e-10
2.58706995115e-10
2.01645772838e-10
3.34905023772e-10
2.65639610627e-10
4.27208838964e-10
3.44500316293e-10
5.37447045625e-10
4.40096145443e-10
6.66975792968e-10
5.53632800694e-10
8.16145573767e-10
6.85159065933e-10
9.83131783689e-10
8.32328431279e-10
1.16243115591e-09
9.88374033235e-10
1.35875477917e-09
1.16922946053e-09
)
;

boundaryField
{
    inletfuel
    {
        type            fixedValue;
        value           uniform 0;
    }
    inletair
    {
        type            fixedValue;
        value           uniform 0;
    }
    outlet
    {
        type            zeroGradient;
    }
    axis
    {
        type            empty;
    }
    leftside
    {