/*--------------------------------*- C++ -*----------------------------------*\
  =========                 |
  \\      /  F ield         | OpenFOAM: The Open Source CFD Toolbox
   \\    /   O peration     | Website:  https://openfoam.org
    \\  /    A nd           | Version:  dev
     \\/     M anipulation  |
\*---------------------------------------------------------------------------*/
FoamFile
{
    version     2.0;
    format      ascii;
    class       volScalarField;
    location    "0.3";
    object      CH2;
}
// * * * * * * * * * * * * * * * * * * * * * * * * * * * * * * * * * * * * * //

dimensions      [0 0 0 0 0 0 0];

internalField   nonuniform List<scalar> 
1629
(
1.72733684841e-27
1.56339245388e-27
1.17693633376e-27
2.4760677574e-25
3.11115222128e-25
4.88417976656e-25
1.9745839112e-23
3.64814480202e-23
1.17525275606e-22
1.22586860815e-21
3.29007042357e-21
2.07284073452e-20
8.06558499889e-20
2.83700207829e-19
1.78165698811e-18
4.91815075922e-18
2.12050261853e-17
1.28349424046e-16
2.19582703432e-16
1.11612238944e-15
1.33645936383e-14
1.51823739226e-14
1.38604175378e-13
2.04101413697e-12
3.18450650258e-14
2.15196912856e-13
2.09347501522e-12
5.16074606062e-14
2.51856378844e-13
1.58066342185e-12
8.60401475407e-14
2.86118598387e-13
1.13411244324e-12
1.4625287461e-13
3.47227503911e-13
1.00344724596e-12
2.94209188777e-13
6.70590457928e-13
2.45537572373e-12
2.68948074926e-12
9.89940879022e-12
6.18585488987e-11
1.05304604106e-11
3.59885780827e-11
2.00824521717e-10
1.37179294307e-11
3.83927264373e-11
1.66565910901e-10
1.14982292917e-11
2.67643843023e-11
9.21151941137e-11
7.81780279334e-12
1.57150051791e-11
4.53134623341e-11
5.85674453691e-12
1.15503943657e-11
3.44300786653e-11
7.34328010263e-12
1.59702850394e-11
5.39613506978e-11
1.03858054893e-11
2.21233764988e-11
7.07438535072e-11
1.13644985717e-11
2.21072538172e-11
6.20264433445e-11
9.8544024901e-12
1.73806831766e-11
4.26497967943e-11
7.79658613094e-12
1.28619749661e-11
2.90931860886e-11
7.11831794034e-12
1.17110882744e-11
2.68875280012e-11
8.41180490329e-12
1.40152658952e-11
3.2717906824e-11
1.04339228889e-11
1.68939038591e-11
3.76280929055e-11
1.17166636014e-11
1.80535755592e-11
3.73888281619e-11
1.20836923707e-11
1.77821738601e-11
3.45070422463e-11
1.23772063537e-11
1.76502198255e-11
3.2817123833e-11
1.36318807538e-11
1.90928484937e-11
3.46602600528e-11
1.62679312763e-11
2.24104436312e-11
3.96994177179e-11
2.02618208619e-11
2.7361328424e-11
4.70068332516e-11
2.53274765391e-11
3.34507441181e-11
5.55182358183e-11
3.11032607487e-11
4.01751727904e-11
6.43859956507e-11
3.78389954739e-11
4.79251512947e-11
7.44500999904e-11
4.63940312149e-11
5.77931162819e-11
8.74123893496e-11
5.80827120761e-11
7.13284480127e-11
1.0539090361e-10
7.45611115076e-11
9.03980118679e-11
1.30739569707e-10
9.76819309272e-11
1.17011489289e-10
1.65805918725e-10
1.29444250775e-10
1.53275789398e-10
2.12909251479e-10
1.72676700667e-10
2.02238856826e-10
2.75604371962e-10
2.32610197424e-10
2.69676332533e-10
3.60975455608e-10
3.20017876377e-10
3.67563248963e-10
4.83888804345e-10
4.54841557445e-10
5.1774475968e-10
6.70670157244e-10
6.73689052354e-10
7.59737004852e-10
9.67578791725e-10
1.04819249384e-09
1.16997543605e-09
1.46208268113e-09
1.72459908369e-09
1.90279604804e-09
2.32689718194e-09
2.99456738186e-09
3.26215213592e-09
3.8934428711e-09
5.3968173981e-09
5.8022754209e-09
6.74982012347e-09
9.80207698895e-09
1.04076135493e-08
1.18092785419e-08
1.73570776529e-08
1.82282590899e-08
2.02271653598e-08
2.91809552975e-08
3.03724296451e-08
3.30863603875e-08
4.60495154111e-08
4.76065495534e-08
5.11341294629e-08
6.86219076465e-08
7.06063979263e-08
7.50858934975e-08
9.83147556037e-08
1.0082996007e-07
1.0649143961e-07
1.38148020349e-07
1.41336067883e-07
1.48491442333e-07
1.9280551079e-07
1.96801352021e-07
2.05737653066e-07
2.68304907777e-07
2.73179255572e-07
2.8403076676e-07
3.69525565966e-07
3.75157245214e-07
3.87622794534e-07
4.91646335715e-07
4.97350617165e-07
5.09862510174e-07
6.09490763639e-07
6.13764380952e-07
6.22958315673e-07
6.56747700725e-07
6.57147067774e-07
6.5764723504e-07
1.09798362035e-19
7.2757781474e-18
5.08255121622e-16
1.49783375346e-13
2.65811599402e-11
1.55599854322e-11
6.76806629835e-12
2.9809980208e-12
2.47672705723e-12
1.13395509927e-11
4.25875586577e-10
1.21052593864e-09
7.53075948137e-10
3.23586807722e-10
1.35297130907e-10
1.16627633291e-10
2.02854128116e-10
2.43488363438e-10
1.83727055368e-10
1.09677187554e-10
7.02048479785e-11
6.7633061296e-11
8.31900610332e-11
9.02775275572e-11
8.30366289739e-11
7.19412899697e-11
6.58994172349e-11
6.82254460733e-11
7.62600284398e-11
8.74909010737e-11
9.97406926987e-11
1.11611346684e-10
1.25044389762e-10
1.42868907264e-10
1.68136077858e-10
2.03938514804e-10
2.53063412111e-10
3.18046620691e-10
4.03224735271e-10
5.17842067902e-10
6.81543325802e-10
9.27773653731e-10
1.31322289005e-09
1.94214278033e-09
3.01467449995e-09
4.90197982488e-09
8.23909640163e-09
1.3976193993e-08
2.32705705955e-08
3.71662687014e-08
5.63876396666e-08
8.17139603117e-08
1.14826199982e-07
1.58970965931e-07
2.18740031965e-07
2.99689269822e-07
4.05420677621e-07
5.274282068e-07
6.35396795987e-07
6.57374698052e-07
8.99309039524e-24
1.90756275942e-22
5.83146074847e-22
8.84766866649e-22
6.45673701909e-22
2.89625944866e-22
9.10237490252e-23
2.15130321085e-23
4.02729829871e-24
6.14426219222e-25
7.74888131482e-26
8.16116362415e-27
7.24230182742e-28
5.46542103118e-29
3.54583877536e-30
2.00529489794e-31
1.00768155855e-32
4.6056373505e-34
1.9177572374e-35
2.39267029416e-37
1.98421680954e-22
3.44534217566e-21
1.31685930428e-20
2.21983306934e-20
1.44956176258e-20
5.57263453954e-21
1.49341325051e-21
3.0357809933e-22
4.97504804573e-23
6.73962044534e-24
7.64800872968e-25
7.35170782188e-26
6.05217502367e-27
4.31793032848e-28
2.70667215126e-29
1.5154441069e-30
7.74483350768e-32
3.70410683792e-33
1.59614199123e-34
2.10117438327e-36
2.9777470557e-21
3.22791442209e-20
1.72517118068e-19
3.1835170238e-19
1.82961045968e-19
6.06207916765e-20
1.41082977262e-20
2.53818888631e-21
3.75154746191e-22
4.63776865638e-23
4.86179525138e-24
4.37816620297e-25
3.43248073487e-26
2.37651119182e-27
1.47522863495e-28
8.34575686516e-30
4.38864342378e-31
2.20150994252e-32
9.82719522005e-34
1.30739493024e-35
2.47895807605e-20
1.66754986453e-19
2.06451929161e-18
3.56946401337e-18
1.77228356158e-18
5.19235219272e-19
1.08879488433e-19
1.80909282134e-20
2.49795218829e-21
2.91455952078e-22
2.91573720928e-23
2.53706201987e-24
1.94882043387e-25
1.34137867953e-26
8.39016357569e-28
4.83389233116e-29
2.60738278469e-30
1.34959968015e-31
6.24463328805e-33
1.02072375629e-34
5.74801855435e-18
8.11312989418e-18
3.98825236504e-17
4.52699938708e-17
1.75108828114e-17
4.38881325559e-18
8.2030335246e-19
1.25265702769e-19
1.61038520533e-20
1.77687076134e-21
1.70954637962e-22
1.45625633953e-23
1.1146398732e-24
7.76265408325e-26
4.96349762869e-27
2.93587768152e-28
1.62523684044e-29
8.62227704694e-31
4.09195887068e-32
8.51042814235e-34
1.90020563643e-15
6.26595790917e-15
1.64201537496e-15
6.69057721461e-16
1.70327042047e-16
3.48675735659e-17
5.77075767725e-18
8.00085727172e-19
9.56229352251e-20
1.00455156921e-20
9.42730869079e-22
8.02012497037e-23
6.25445802039e-24
4.49368520742e-25
2.97382786517e-26
1.81306745669e-27
1.02664802785e-28
5.52843199919e-30
2.63111077326e-31
6.01067381088e-33
1.50441507828e-12
5.35858655152e-12
2.09951246984e-13
1.49045454399e-14
1.69406035976e-15
2.42295243919e-16
3.42458916439e-17
4.33552818024e-18
4.91272207799e-19
5.05720596198e-20
4.79794552946e-21
4.23356115658e-22
3.47324347932e-23
2.62645937153e-24
1.81166377608e-25
1.1355059424e-26
6.52122238666e-28
3.51698468518e-29
1.63842740455e-30
3.77659300171e-32
2.75135668445e-10
1.7669576757e-11
2.87380152239e-12
1.18365822671e-13
9.27388604413e-15
1.03961334166e-15
1.35708110688e-16
1.71576578546e-17
2.00980095649e-18
2.20497152628e-19
2.28301912476e-20
2.21333330052e-21
1.97127849486e-22
1.58205188135e-23
1.1310404579e-24
7.20491862951e-26
4.14128715804e-27
2.20369647409e-28
9.85484828995e-30
2.16922070142e-31
9.79633583572e-11
1.0923029875e-09
8.7584491929e-12
1.60155343275e-13
1.23020242813e-14
1.76950109424e-15
2.87520247763e-16
4.56087024712e-17
6.70543886419e-18
9.10466302466e-19
1.12560866196e-19
1.23906636036e-20
1.19321810126e-21
9.97008209114e-23
7.23318908823e-24
4.59841571892e-25
2.60559762325e-26
1.34927526152e-27
5.71317689975e-29
1.16192502872e-30
2.53373524659e-11
1.56632798882e-10
2.66022594066e-12
5.87512162164e-14
8.23287150452e-15
2.0794722635e-15
5.3946073183e-16
1.32824771584e-16
2.76753738118e-17
4.74372617343e-18
6.70637430714e-19
7.8839724345e-20
7.77815183858e-21
6.50406668784e-22
4.66137877905e-23
2.90444772058e-24
1.60165529846e-25
7.98788923919e-27
3.17697821207e-28
5.87747600704e-30
6.78007669186e-12
1.64355998091e-11
4.18222465279e-12
1.31972061914e-13
1.46994872104e-14
6.33856428621e-15
2.63241683269e-15
8.30381442171e-16
1.91733499591e-16
3.37919339164e-17
4.73990110627e-18
5.44275538381e-19
5.21396403588e-20
4.22696891047e-21
2.93681884494e-22
1.77299487684e-23
9.44429757144e-25
4.51147745276e-26
1.68092490096e-27
2.81567079541e-29
1.01778147346e-11
1.87495655598e-10
1.12198861982e-09
3.15584809526e-11
1.39247409286e-12
1.55774444711e-13
3.47971782069e-14
8.39209663304e-15
1.66833022806e-15
2.64800035541e-16
3.42617847359e-17
3.6896009815e-18
3.35558477417e-19
2.6058016983e-20
1.74447950264e-21
1.01759123535e-22
5.23068371368e-24
2.39313796823e-25
8.37103310863e-27
1.27216824454e-28
9.32529077951e-11
2.26505913902e-09
1.41187775595e-07
2.21571606483e-09
5.90018654279e-11
3.47518226903e-12
4.82622933519e-13
8.31465683287e-14
1.35202186335e-14
1.88520359038e-15
2.22686812703e-16
2.24356646754e-17
1.94122462464e-18
1.45047945539e-19
9.40852272227e-21
5.33348961952e-22
2.66053752648e-23
1.17225618045e-24
3.87498438651e-26
5.37971409964e-28
4.67028481486e-09
1.60872966586e-07
1.16051876375e-05
1.08145036251e-07
1.73294780163e-09
5.97724040194e-11
5.34001891696e-12
6.43511092759e-13
8.48206432205e-14
1.05331670095e-14
1.16250037938e-15
1.12302768785e-16
9.45797322423e-18
6.93778183944e-19
4.43593790218e-20
2.47960367253e-21
1.21542575117e-22
5.21446123859e-24
1.64623602666e-25
2.11035289404e-27
1.14421036511e-08
3.21023666883e-07
1.66229547363e-05
1.86264614912e-07
4.00705672545e-09
1.65097858153e-10
1.60457671319e-11
2.04681928255e-12
2.82464337663e-13
3.67517503071e-14
4.22222349385e-15
4.21290141074e-16
3.64117360915e-17
2.7261616816e-18
1.76959324169e-19
9.98039592772e-21
4.89704003033e-22
2.07794652345e-23
6.35136156678e-25
7.61836735724e-27
4.94021404903e-09
7.45061782329e-08
1.5159181034e-06
9.01390975342e-08
2.85874024162e-09
1.44483436242e-10
1.8166390194e-11
3.15210928516e-12
5.37396148867e-13
8.22460490614e-14
1.07135884742e-14
1.17751927168e-15
1.09706287206e-16
8.70937449399e-18
5.91434714215e-19
3.44762376923e-20
1.72738502661e-21
7.37405938205e-23
2.21393515199e-24
2.52038799129e-26
1.56199651382e-09
1.40763862359e-08
1.32669926239e-07
6.33496793119e-08
1.51883128151e-09
7.34391505378e-11
1.12758441117e-11
3.19202276352e-12
7.23368326578e-13
1.36083071257e-13
2.08423904285e-14
2.60451533542e-15
2.68888890942e-16
2.31836917644e-17
1.68170610854e-18
1.03184844839e-19
5.36565371188e-21
2.33869472497e-22
6.9862041535e-24
7.65247626355e-26
5.70907797422e-10
5.23097084713e-09
8.89898285138e-08
3.44685380426e-06
3.68629388476e-08
6.01347837956e-10
2.18499132364e-11
3.89720393912e-12
9.26728606912e-13
1.99031686716e-13
3.49886184493e-14
4.94826634228e-15
5.68179800453e-16
5.36005227777e-17
4.19118637683e-18
2.73360913552e-19
1.49054177032e-20
6.70324638851e-22
2.01194193378e-23
2.1465899317e-25
6.38890944689e-10
9.54443021331e-09
2.13522996388e-07
1.02043146076e-05
1.24330716823e-07
1.96414339999e-09
6.54894782282e-11
7.43886792532e-12
1.42715485019e-12
3.02154701566e-13
5.67149677769e-14
8.75895092191e-15
1.09929197309e-15
1.12613770119e-16
9.47459174491e-18
6.58013674908e-19
3.77776664586e-20
1.76309681454e-21
5.35089096951e-23
5.61879639883e-25
1.1879658322e-09
1.75900287238e-08
3.42580946791e-07
1.29899570279e-05
1.97101326485e-07
4.34734232223e-09
1.77450743653e-10
1.74538267455e-11
2.75141318333e-12
5.20550572857e-13
9.61236946476e-14
1.53889603858e-14
2.04632306133e-15
2.23556516296e-16
2.00381000228e-17
1.47514770909e-18
8.90999059769e-20
4.32316837888e-21
1.33120258826e-22
1.38765935839e-24
1.25906566039e-09
1.52652441247e-08
2.30758372665e-07
6.15184856023e-06
2.89700913576e-07
7.7168205199e-09
3.09927206288e-10
2.58361623533e-11
4.32140920135e-12
8.36677292264e-13
1.5846061387e-13
2.6378001134e-14
3.68493145592e-15
4.25177563889e-16
4.02930058008e-17
3.12900302356e-18
1.98397201558e-19
1.00081526798e-20
3.13229535631e-22
3.26512983009e-24
7.87350140027e-10
7.07708322081e-09
7.22036319175e-08
1.13603496282e-06
1.46892147993e-07
3.7748976981e-09
1.597463471e-10
1.41713573108e-11
4.06627015789e-12
1.02286072582e-12
2.24159360316e-13
4.11911931617e-14
6.21185655431e-15
7.65160599089e-16
7.69247603296e-17
6.30591078363e-18
4.19853805164e-19
2.20375157946e-20
7.02266116342e-22
7.36925257103e-24
3.978408061e-10
2.79580512675e-09
2.19276147353e-08
2.6196489024e-07
2.6983882948e-06
3.74573983165e-08
6.8523060845e-10
2.56722420184e-11
4.53838952415e-12
1.19133619981e-12
2.90859741039e-13
5.92695262335e-14
9.76355365557e-15
1.29619140393e-15
1.3908128848e-16
1.20792680818e-17
8.46597659109e-19
4.63311506056e-20
1.50664744357e-21
1.60140177074e-23
2.4485035391e-10
1.78635632706e-09
1.70830519382e-08
2.60287276151e-07
6.59150082887e-06
1.13501256532e-07
2.51607333632e-09
9.36317368444e-11
9.34917473297e-12
1.76756511482e-12
4.01845506559e-13
8.45533521831e-14
1.48163867578e-14
2.10120649366e-15
2.40108996473e-16
2.21011400386e-17
1.63267109585e-18
9.33138748976e-20
3.10274658705e-21
3.35853923998e-23
2.54628668356e-10
2.12699456922e-09
2.24388241324e-08
3.28997435795e-07
8.84211554624e-06
3.49886673455e-07
8.89650024992e-09
3.23124951919e-10
2.3564458292e-11
3.38463361125e-12
6.41715422295e-13
1.27456595946e-13
2.26040612697e-14
3.34003185011e-15
4.01674336303e-16
3.89813442954e-17
3.02982773881e-18
1.80837930993e-19
6.1541095027e-21
6.81314708725e-23
3.13091983445e-10
2.52988012588e-09
2.45380283218e-08
3.12118688459e-07
7.30103861143e-06
4.65754883393e-07
1.02728939235e-08
3.35475197665e-10
2.0884414458e-11
3.93962460497e-12
8.49886756159e-13
1.79146625926e-13
3.32602747344e-14
5.15190016785e-15
6.51252292058e-16
6.64985912181e-17
5.43114133714e-18
3.38377905003e-19
1.17902175914e-20
1.33948804831e-22
3.13969855458e-10
2.22305306003e-09
1.83547698451e-08
1.91597405285e-07
3.32715850927e-06
3.02511853642e-07
6.66256754059e-09
2.01433179365e-10
1.2163240316e-11
3.3437271545e-12
9.18054530813e-13
2.22364695035e-13
4.53082915181e-14
7.53688478798e-15
1.01259379511e-15
1.09302465359e-16
9.39961473798e-18
6.11909627135e-19
2.18464478303e-20
2.55435665186e-22
2.62867293507e-10
1.61712373128e-09
1.14771904926e-08
1.0111063689e-07
1.3788073953e-06
1.81027223796e-07
4.43778504446e-09
1.19153726092e-10
6.77621314091e-12
2.43274714511e-12
8.72278530612e-13
2.49203181852e-13
5.70708117175e-14
1.03827833807e-14
1.50034035734e-15
1.72422954218e-16
1.56763042634e-17
1.0687495878e-18
3.91477350793e-20
4.72300259652e-22
2.12188931319e-10
1.191634696e-09
7.83972264613e-09
6.4564187215e-08
7.88601135136e-07
3.58459171179e-06
8.09119221223e-08
1.67907371697e-09
5.35967060954e-11
4.71264621429e-12
1.0409984593e-12
2.86460531402e-13
6.98651021691e-14
1.3730258379e-14
2.13292457799e-15
2.61578790171e-16
2.52050772882e-17
1.80290031527e-18
6.78287156513e-20
8.4615058736e-22
1.87269730123e-10
1.01288335852e-09
6.51795965255e-09
5.23405281942e-08
5.94119543827e-07
5.66325781557e-06
2.59293535103e-07
6.1871462419e-09
1.96646881757e-10
1.20971786315e-11
1.75663943482e-12
3.81435982827e-13
8.87324550672e-14
1.80004211752e-14
2.95494866334e-15
3.84473969753e-16
3.92054646265e-17
2.94204831681e-18
1.13694630875e-19
1.46842190415e-21
1.90170166436e-10
1.00750020403e-09
6.3518150887e-09
4.91909954003e-08
5.16079615197e-07
6.6868462408e-06
4.39692368152e-07
9.58268506518e-09
2.66598238919e-10
1.24573718276e-11
2.09194552538e-12
4.71084622022e-13
1.10827515185e-13
2.32189323199e-14
3.99982417907e-15
5.49468224187e-16
5.91523341085e-17
4.65167748697e-18
1.84506479605e-19
2.46835658208e-21
2.06324035413e-10
1.04423992139e-09
6.23203467285e-09
4.48840470824e-08
4.23267940937e-07
5.57971285607e-06
4.62793558261e-07
1.03500904613e-08
2.56627032121e-10
1.08342700441e-11
1.99961309872e-12
5.11931078099e-13
1.29892451526e-13
2.88384225231e-14
5.25064501909e-15
7.62273819742e-16
8.6590290148e-17
7.13018088192e-18
2.89969241324e-19
4.01808682267e-21
2.27617926886e-10
1.0865778857e-09
6.0883539711e-09
4.07893660045e-08
3.49994650577e-07
4.06833137664e-06
3.74516439264e-07
1.00191096066e-08
2.5248981861e-10
9.990863502e-12
1.71743498156e-12
5.02851488914e-13
1.41846205061e-13
3.41166364325e-14
6.64002569296e-15
1.0234960447e-15
1.2286231058e-16
1.05934101862e-17
4.41258509245e-19
6.33156340154e-21
2.48393145398e-10
1.11257725591e-09
5.83726598436e-09
3.63905630632e-08
2.85532830149e-07
2.92098303393e-06
2.91875883791e-07
1.22223156098e-08
3.09741489393e-10
1.09499049359e-11
1.40711185117e-12
4.56366257806e-13
1.44830110199e-13
3.82846125715e-14
8.05036068447e-15
1.32571785505e-15
1.68679573638e-16
1.52418705372e-17
6.49790793753e-19
9.65210745264e-21
2.65945358144e-10
1.11784476162e-09
5.50172775095e-09
3.20460699997e-08
2.31708206377e-07
2.11227461163e-06
1.82957375734e-06
8.93736634711e-08
1.85708539266e-09
4.68071301448e-11
2.51986148157e-12
4.94553243628e-13
1.48498514545e-13
4.15377555055e-14
9.38802471831e-15
1.65499222909e-15
2.23742345682e-16
2.12117909323e-17
9.25007766622e-19
1.42219682374e-20
2.86599282361e-10
1.14096431826e-09
5.32920623038e-09
2.94198485119e-08
1.99505170839e-07
1.66496211679e-06
4.07294931714e-06
2.56190683115e-07
5.45644540002e-09
1.21570099093e-10
4.29974930852e-12
6.10505334678e-13
1.58404324246e-13
4.45400548743e-14
1.06309144129e-14
1.99757298771e-15
2.86897024246e-16
2.85429460334e-17
1.27208220401e-18
2.02411637126e-20
3.16530714512e-10
1.20154166153e-09
5.35625524542e-09
2.81397151535e-08
1.7946718463e-07
1.37294410633e-06
4.7773497262e-06
3.6917771273e-07
8.7846513959e-09
1.89350072078e-10
6.00147386142e-12
7.38861489395e-13
1.72597210106e-13
4.76922783277e-14
1.18117871089e-14
2.34645446893e-15
3.56883176879e-16
3.71996848698e-17
1.69145261537e-18
2.78449546955e-20
3.61235797535e-10
1.3124391e-09
5.59915896712e-09
2.80556121854e-08
1.68790156325e-07
1.18841811334e-06
4.80817017844e-06
4.15906384034e-07
1.20184768649e-08
2.63882813603e-10
7.99374322554e-12
8.56652284286e-13
1.87679232315e-13
5.09862474137e-14
1.29625107334e-14
2.69993462742e-15
4.32750870675e-16
4.71078711385e-17
2.17987689617e-18
3.7106895028e-20
4.25564218781e-10
1.4821595892e-09
6.05736794627e-09
2.89764900393e-08
1.647585603e-07
1.07016766009e-06
4.52390080548e-06
4.18713566199e-07
1.64450346295e-08
3.66660031773e-10
1.03516396719e-11
9.17062563738e-13
1.95924339919e-13
5.35353951198e-14
1.40073330934e-14
3.04851418996e-15
5.1296221797e-16
5.81140325689e-17
2.72930596236e-18
4.80120817317e-20
5.13093414728e-10
1.7129865638e-09
6.70386700265e-09
3.0604927102e-08
1.64433057739e-07
9.84658057444e-07
4.06820423038e-06
3.96025856499e-07
1.97102722054e-08
4.4370776636e-10
1.13966329349e-11
8.07660922789e-13
1.83392953139e-13
5.33596572191e-14
1.46885386914e-14
3.36037421933e-15
5.93724528593e-16
6.98604345283e-17
3.3221967047e-18
6.03640002439e-20
6.26510056008e-10
2.00393676038e-09
7.50389662348e-09
3.26579769548e-08
1.65470781775e-07
9.09492701124e-07
3.5531528718e-06
3.61452334525e-07
2.1797036163e-08
5.1401955352e-10
1.18722321757e-11
6.00833427743e-13
1.50894170914e-13
4.94468355143e-14
1.47409419789e-14
3.58972858653e-15
6.68827642475e-16
8.1726574753e-17
3.92899587419e-18
7.37163184782e-20
7.72129233536e-10
2.367713334e-09
8.48827382262e-09
3.52268873673e-08
1.6811615406e-07
8.45654484839e-07
3.0768032501e-06
3.25529816561e-07
2.27314636135e-08
5.88230954925e-10
1.25518715314e-11
4.28443529934e-13
1.11432170178e-13
4.25738589033e-14
1.40797242988e-14
3.69894516973e-15
7.31307127708e-16
9.29182655344e-17
4.51233382125e-18
8.74299202085e-20
9.65103104944e-10
2.84215765111e-09
9.77041004954e-09
3.86960371393e-08
1.7369421998e-07
7.98417479649e-07
2.69990599408e-06
4.20443001413e-07
3.16063663506e-08
9.14637294574e-10
1.82850597229e-11
4.83773984208e-13
8.42792490476e-14
3.49554958152e-14
1.28601294595e-14
3.67479592569e-15
7.75275771467e-16
1.02597098487e-16
5.03272933025e-18
1.00762370302e-19
1.23812674321e-09
3.50943605573e-09
1.15909008647e-08
4.38422721962e-08
1.8486959237e-07
7.79194407246e-07
2.50184823031e-06
1.38734393252e-06
1.04742381927e-07
3.62873169918e-09
6.91149492345e-11
1.48361826121e-12
1.09276410158e-13
3.08980835272e-14
1.15579558301e-14
3.54477919697e-15
7.97923884784e-16
1.10008129238e-16
5.45120094779e-18
1.12865735245e-19
1.64314709007e-09
4.48222738624e-09
1.42084373164e-08
5.11672922889e-08
2.01647905808e-07
7.79030944057e-07
2.37815860266e-06
2.13902629243e-06
1.77782258155e-07
7.20565379952e-09
1.46084069271e-10
2.97537353493e-12
1.59852164767e-13
3.0553954098e-14
1.04972151098e-14
3.35390851455e-15
7.99824490643e-16
1.14596457702e-16
5.73229422771e-18
1.22788520283e-19
2.26308642774e-09
5.92147436032e-09
1.79370407253e-08
6.10985959438e-08
2.23401908974e-07
7.8941125912e-07
2.27361871176e-06
2.46706722307e-06
2.22045810719e-07
1.05506380326e-08
2.34629770906e-10
4.54540309775e-12
1.9491424597e-13
3.0726281974e-14
9.61915000183e-15
3.13071882839e-15
7.83421692641e-16
1.16097255476e-16
5.85205504049e-18
1.29661791468e-19
3.24357239194e-09
8.0886179849e-09
2.32430625772e-08
7.42412783106e-08
2.50023849296e-07
8.07049863717e-07
2.175141372e-06
2.56840784698e-06
2.45180822003e-07
1.32730774755e-08
3.81304961725e-10
7.03238536556e-12
2.30294786994e-13
3.04937646687e-14
8.81179349715e-15
2.88854414113e-15
7.51916701781e-16
1.14574347807e-16
5.80637486847e-18
1.32986466825e-19
4.850792641e-09
1.14219144174e-08
3.08362665008e-08
9.14993162005e-08
2.82342554817e-07
8.34354346476e-07
2.10404846365e-06
2.54572851037e-06
2.54602038372e-07
1.52762455166e-08
5.57689979799e-10
1.23050454155e-11
3.18444216392e-13
3.19953498036e-14
8.16162980252e-15
2.64499212165e-15
7.09302402349e-16
1.10384505042e-16
5.61097616693e-18
1.32732497029e-19
7.54791692954e-09
1.65944597614e-08
4.16327272553e-08
1.13767282905e-07
3.20844100418e-07
8.71391028975e-07
2.05449568515e-06
2.44108185304e-06
2.53926401103e-07
1.65238205971e-08
7.63398864303e-10
2.13689099393e-11
5.00216962491e-13
3.70153737158e-14
7.81440436306e-15
2.42292351183e-15
6.602013549e-16
1.04079103813e-16
5.29334375855e-18
1.29185174858e-19
1.20726868079e-08
2.45329218326e-08
5.66546793711e-08
1.41766038813e-07
3.65739744446e-07
9.17419022594e-07
2.01693808331e-06
2.2682105975e-06
2.4465476337e-07
1.70562510205e-08
9.83108446637e-10
3.46165996098e-11
8.3642843841e-13
4.6672890085e-14
7.8613111861e-15
2.2424531245e-15
6.09314213588e-16
9.63078486852e-17
4.88512812383e-18
1.22770190895e-19
1.94473774082e-08
3.63287289103e-08
7.68470936864e-08
1.75952705141e-07
4.17107011585e-07
9.70942381966e-07
1.97857338461e-06
2.02049001351e-06
2.25528556765e-07
1.67174348386e-08
1.13688039393e-09
4.97547350733e-11
1.36596687608e-12
6.0364233677e-14
8.21700683103e-15
2.10753636252e-15
5.6025823041e-16
8.77234472715e-17
4.41864261336e-18
1.14010141623e-19
3.08185339491e-08
5.30042864231e-08
1.02884449117e-07
2.16567684359e-07
4.74924725926e-07
1.0285943325e-06
1.91777781006e-06
1.64294920511e-06
1.90327722225e-07
1.6228532611e-08
1.24332601948e-09
6.65275800908e-11
2.16940619452e-12
7.99554885512e-14
8.82491713496e-15
2.01356266168e-15
5.1525186871e-16
7.8902946094e-17
3.92477796739e-18
1.03530147576e-19
4.71350905e-08
7.52668373889e-08
1.35156044577e-07
2.63775306818e-07
5.38424488266e-07
1.08060448027e-06
1.78116599538e-06
9.15586012956e-07
1.14967234564e-07
1.17736725645e-08
1.0555302859e-09
7.06874771617e-11
2.85731928289e-12
9.83055827285e-14
9.18337099845e-15
1.91991132729e-15
4.72852395486e-16
7.01644825501e-17
3.42712825371e-18
9.19637845503e-20
6.90824539723e-08
1.03828748992e-07
1.74770846718e-07
3.19966663041e-07
6.12587853647e-07
1.13815174373e-06
1.63290583106e-06
3.59379945867e-07
5.33974013261e-08
6.60730423186e-09
7.05138268586e-10
5.92082934551e-11
3.03470582794e-12
1.09124330928e-13
8.82968130104e-15
1.77218727737e-15
4.28216192956e-16
6.14767216194e-17
2.93702107261e-18
7.98038224807e-20
9.76067918291e-08
1.40168722813e-07
2.24360422594e-07
3.89858667003e-07
7.05246394993e-07
1.21674316547e-06
1.55166352382e-06
2.82980607572e-07
4.18225192088e-08
5.37329200549e-09
6.05424291675e-10
5.78856683374e-11
3.53322608695e-12
1.37753638093e-13
8.81626557084e-15
1.60690251255e-15
3.80716575023e-16
5.28166975153e-17
2.46157050296e-18
6.74845868139e-20
1.34688394815e-07
1.86924477244e-07
2.87300846198e-07
4.76490139498e-07
8.13832153112e-07
1.29346794832e-06
1.47017411636e-06
2.77753600143e-07
4.34764877727e-08
5.9271502114e-09
7.04983951667e-10
7.4202492982e-11
5.25602297707e-12
2.28927554318e-13
1.12279436684e-14
1.55626140009e-15
3.38355643664e-16
4.45774233715e-17
2.01641880333e-18
5.55964122457e-20
1.83784093947e-07
2.47758560007e-07
3.66580883363e-07
5.78812198981e-07
9.23834885995e-07
1.32477107347e-06
1.30059477979e-06
2.64295881793e-07
4.52869652625e-08
6.77604308051e-09
8.82364857017e-10
1.03818000306e-10
8.55224294975e-12
4.36486398696e-13
1.86851007194e-14
1.78856817795e-15
3.14834148357e-16
3.7590003171e-17
1.62998609023e-18
4.49941039043e-20
2.4927635314e-07
3.25971764085e-07
4.61917586434e-07
6.86292518424e-07
9.99982869835e-07
1.23275607348e-06
8.56575345753e-07
1.94853875808e-07
3.76517975458e-08
6.36267501661e-09
9.35374707139e-10
1.26468799663e-10
1.2256721607e-11
7.65458230292e-13
3.32364361801e-14
2.39363556292e-15
3.19052266991e-16
3.25690349607e-17
1.32947009548e-18
3.65185372405e-20
3.3608285191e-07
4.24401927455e-07
5.71347582614e-07
7.87785004407e-07
1.02384133732e-06
1.04375984651e-06
3.52594223588e-07
9.62187961836e-08
2.19680043269e-08
4.34469672899e-09
7.43943677933e-10
1.20090100948e-10
1.38505845771e-11
1.09471871174e-12
5.31400128315e-14
3.21686250024e-15
3.4129387659e-16
2.9275187498e-17
1.11675162803e-18
3.04787095498e-20
4.46239310234e-07
5.40925614448e-07
6.85463714281e-07
8.65733491089e-07
9.8974041614e-07
8.21529564714e-07
2.44295765194e-07
6.50517224451e-08
1.53613393348e-08
3.23897709745e-09
6.04110186254e-10
1.09939274376e-10
1.45346301678e-11
1.39549578296e-12
7.8010692928e-14
4.12753575087e-15
3.64854265257e-16
2.68046592154e-17
9.69930599713e-19
2.65715076883e-20
5.66850856664e-07
6.5145083907e-07
7.60683469561e-07
8.47563511892e-07
7.8084345159e-07
3.28878120102e-07
1.15734278271e-07
3.50457932755e-08
9.28057907753e-09
2.17630954948e-09
4.51571525064e-10
9.33196418908e-11
1.4115162037e-11
1.60313994218e-12
1.07576241987e-13
5.13434100919e-15
3.78887315105e-16
2.43625320254e-17
8.62812287239e-19
2.42473591551e-20
6.61957838157e-07
7.08306728237e-07
7.36795813425e-07
6.71242693826e-07
3.71917294082e-07
1.52831024049e-07
5.62029664238e-08
1.8300254158e-08
5.29785740136e-09
1.36545803673e-09
3.13954805179e-10
7.37990351431e-11
1.27586690813e-11
1.68675892411e-12
1.37622191559e-13
6.29297206863e-15
3.78901911172e-16
2.15506236551e-17
7.7456402495e-19
2.29514220322e-20
6.53976472921e-07
6.25100700149e-07
5.26803432762e-07
2.96252305467e-07
1.47191661915e-07
6.5200270123e-08
2.5782657766e-08
9.10318977784e-09
2.87891745789e-09
8.1401751569e-10
2.07586781449e-10
5.61281016732e-11
1.11483273153e-11
1.70613816158e-12
1.67851769015e-13
7.88833420283e-15
3.60218235865e-16
1.80124340208e-17
6.81572345426e-19
2.19019734328e-20
1.68623770358e-35
6.46781530328e-37
9.30140391142e-35
5.69311716728e-36
6.11913502084e-34
5.32624159515e-35
3.38501627515e-33
2.68201529268e-34
1.63131736054e-32
1.09322578222e-33
7.29028094101e-32
4.12459510604e-33
3.11332528871e-31
1.49521895308e-32
1.27840915138e-30
5.24486900183e-32
5.03578638402e-30
1.77466284358e-31
1.89252130627e-29
5.74997385441e-31
6.73148441776e-29
1.76573471346e-30
2.24654082346e-28
5.41167855221e-30
6.99308972388e-28
1.64877568474e-29
2.02869012095e-27
4.72596593314e-29
5.50847542675e-27
1.27588671044e-28
1.41098161184e-26
3.26562157963e-28
3.44114005933e-26
7.98954292625e-28
8.05779344404e-26
1.88264164833e-27
1.82207931485e-25
4.29493586375e-27
3.99000155207e-25
9.51615528293e-27
8.47360803164e-25
2.04719543966e-26
1.74777719637e-24
4.27495616859e-26
3.50568308665e-24
8.67482317559e-26
6.84025959833e-24
1.71110636299e-25
1.29725576451e-23
3.2786911675e-25
2.38739549831e-23
6.10083420406e-25
4.25954452138e-23
1.09949381034e-24
7.36321837043e-23
1.91771582516e-24
1.23249644059e-22
3.23550290058e-24
1.99650065785e-22
5.27812971975e-24
3.12790527441e-22
8.3217442706e-24
4.73574287166e-22
1.26730466496e-23
6.92523005459e-22
1.86343426508e-23
9.78853582064e-22
2.64782104857e-23
1.34034803275e-21
3.64433011984e-23
1.78214755912e-21
4.87013804065e-23
2.30283055099e-21
6.32485789463e-23
2.89087383492e-21
7.98032438152e-23
3.52574521956e-21
9.78302553794e-23
4.18043746702e-21
1.16606584778e-22
4.81988448234e-21
1.35168054759e-22
5.39917443587e-21
1.52245294081e-22
5.8709553421e-21
1.66466121856e-22
6.19993628348e-21
1.76777015014e-22
6.37023541453e-21
1.82669627283e-22
6.38011082109e-21
1.84039862582e-22
6.23459664157e-21
1.80981550581e-22
5.94502708191e-21
1.73785876609e-22
5.53181690343e-21
1.63042868836e-22
5.02210950503e-21
1.49595442578e-22
4.44238695407e-21
1.34337378134e-22
3.82092545282e-21
1.18291681969e-22
3.19703599067e-21
1.02904672798e-22
2.6263025968e-21
9.02888854637e-23
2.16541892301e-21
8.29735864442e-23
1.84389829409e-21
8.34304405745e-23
1.65787402482e-21
9.47695754715e-23
1.58970988773e-21
1.22748725338e-22
1.62719421138e-21
1.80144078084e-22
1.78669599464e-21
3.51615995932e-22
)
;

boundaryField
{
    inletfuel
    {
        type            fixedValue;
        value           uniform 0;
    }
    inletair
    {