/*--------------------------------*- C++ -*----------------------------------*\
  =========                 |
  \\      /  F ield         | OpenFOAM: The Open Source CFD Toolbox
   \\    /   O peration     | Website:  https://openfoam.org
    \\  /    A nd           | Version:  dev
     \\/     M anipulation  |
\*---------------------------------------------------------------------------*/
FoamFile
{
    version     2.0;
    format      ascii;
    class       volScalarField;
    location    "0.3";
    object      CH2(S);
}
// * * * * * * * * * * * * * * * * * * * * * * * * * * * * * * * * * * * * * //

dimensions      [0 0 0 0 0 0 0];

internalField   nonuniform List<scalar> 
1629
(
2.83532165278e-29
2.40801891238e-29
1.35987482704e-29
6.15686674911e-27
7.86099945063e-27
1.18599964634e-26
7.07380317888e-25
1.40349914786e-24
4.8639790058e-24
5.63593645614e-23
1.68090000206e-22
1.1147802728e-21
4.0191954807e-21
1.49199068846e-20
9.60078160826e-20
2.49727733406e-19
1.11622671633e-18
6.88732893715e-18
1.08224099836e-17
5.75170775021e-17
7.23725048003e-16
8.0451859756e-16
7.44590050016e-15
1.10308779939e-13
1.69022909369e-15
1.15107291325e-14
1.13299037912e-13
2.69261845024e-15
1.32338257448e-14
8.46701755785e-14
4.38585808234e-15
1.47377562587e-14
6.00200911973e-14
7.37963871755e-15
1.78503509036e-14
5.40732269659e-14
1.55351647096e-14
3.70849366623e-14
1.4522434609e-13
1.64371405843e-13
6.14388369014e-13
3.87046118688e-12
6.24910995974e-13
2.13842324002e-12
1.19173527426e-11
8.07556394447e-13
2.26273691696e-12
9.81155008741e-12
6.73661926603e-13
1.57084236454e-12
5.40812523472e-12
4.58256038738e-13
9.25518849693e-13
2.6832386072e-12
3.4794493531e-13
6.9306853529e-13
2.09042580865e-12
4.33859308578e-13
9.45065238172e-13
3.19083092081e-12
5.96711016711e-13
1.26686790434e-12
4.02956155094e-12
6.37692679979e-13
1.23522379479e-12
3.44408317187e-12
5.44303750889e-13
9.56465767189e-13
2.33460247276e-12
4.3035315019e-13
7.10179326583e-13
1.60900981696e-12
3.98740987369e-13
6.58647418394e-13
1.52130391591e-12
4.70597197194e-13
7.84425764615e-13
1.83079188423e-12
5.69506415434e-13
9.19237566775e-13
2.03722109601e-12
6.17793557476e-13
9.47139017223e-13
1.94639209353e-12
6.17225039641e-13
9.03851353126e-13
1.74116055848e-12
6.22084752215e-13
8.85096885595e-13
1.64084157437e-12
6.86702072048e-13
9.6230535131e-13
1.74902370285e-12
8.22947069579e-13
1.1345320738e-12
2.01203999501e-12
1.01781704234e-12
1.37387738389e-12
2.35833547779e-12
1.2489699774e-12
1.64711507378e-12
2.72686091489e-12
1.49893914676e-12
1.93257378123e-12
3.08776170747e-12
1.78807017511e-12
2.26137886574e-12
3.50460153014e-12
2.16159190312e-12
2.69027470237e-12
4.06309931984e-12
2.67627471036e-12
3.28475027554e-12
4.84880235589e-12
3.39747549703e-12
4.11728093969e-12
5.95008231422e-12
4.39412559867e-12
5.26150961079e-12
7.45013202316e-12
5.73131023086e-12
6.78377981296e-12
9.41612304169e-12
7.49658609712e-12
8.77682255646e-12
1.19524753367e-11
9.86475428849e-12
1.14342894852e-11
1.5298645507e-11
1.32288309015e-11
1.51971280912e-11
2.00120111943e-11
1.82912575606e-11
2.08383107593e-11
2.70318345008e-11
2.62478129532e-11
2.96509520117e-11
3.78765358007e-11
3.93264995887e-11
4.40193764969e-11
5.52901876046e-11
6.20026472785e-11
6.86877389719e-11
8.46311654678e-11
1.03207596523e-10
1.13010992443e-10
1.36208294254e-10
1.79722204493e-10
1.94344291292e-10
2.28645682875e-10
3.19741157299e-10
3.41489680057e-10
3.92053544137e-10
5.63196547413e-10
5.947696433e-10
6.6755407299e-10
9.54975063177e-10
9.99060263081e-10
1.09994905271e-09
1.53752756393e-09
1.59690324561e-09
1.73202465829e-09
2.35938703701e-09
2.43791333369e-09
2.61590138476e-09
3.50463988812e-09
3.60825391178e-09
3.84236405802e-09
5.12794811348e-09
5.26478550361e-09
5.57297710371e-09
7.46925611481e-09
7.64794723732e-09
8.04885087757e-09
1.0870554157e-08
1.10983330793e-08
1.16069609298e-08
1.57110499203e-08
1.59885190971e-08
1.66045780405e-08
2.20020427725e-08
2.2302098161e-08
2.29625199903e-08
2.8825661651e-08
2.90752540242e-08
2.96153710183e-08
3.29403444516e-08
3.30008389291e-08
3.31138346896e-08
5.95857307681e-21
3.95916215584e-19
2.76921164615e-17
8.19730671693e-15
1.46953402625e-12
8.79744891826e-13
3.84955803997e-13
1.68828105477e-13
1.47884345143e-13
7.06740044688e-13
2.6724518639e-11
7.16300782713e-11
4.42856396921e-11
1.89802401514e-11
8.06803868636e-12
7.1560502141e-12
1.19593123098e-11
1.37819826878e-11
1.01287419042e-11
5.96981117992e-12
3.89831079767e-12
3.85114144029e-12
4.64847004738e-12
4.85881525545e-12
4.28562635715e-12
3.60285688653e-12
3.28792948338e-12
3.44914691124e-12
3.86906262952e-12
4.38418173707e-12
4.88482253371e-12
5.33481203409e-12
5.87166288663e-12
6.6309619371e-12
7.72794093534e-12
9.27347102089e-12
1.13612740313e-11
1.40535889635e-11
1.74722078355e-11
2.19337558598e-11
2.81912316594e-11
3.74487090873e-11
5.1571972335e-11
7.38543792223e-11
1.10580376558e-10
1.73459483003e-10
2.82915339969e-10
4.7082605565e-10
7.79289062833e-10
1.25287732369e-09
1.93485041459e-09
2.88119806347e-09
4.18934735244e-09
6.02714889359e-09
8.63551794325e-09
1.23449088294e-08
1.74890866499e-08
2.38956036142e-08
3.03543714625e-08
3.32211876315e-08
4.76849191021e-25
1.01154897538e-23
3.0964356171e-23
4.72567877847e-23
3.49105735083e-23
1.58735164518e-23
5.05620587104e-24
1.2104150476e-24
2.29322693016e-25
3.53750460337e-26
4.50677340286e-27
4.79100280667e-28
4.28845860615e-29
3.26251311878e-30
2.13275995316e-31
1.21478728661e-32
6.14521775218e-34
2.82587131016e-35
1.18244624129e-36
1.4763539546e-38
1.04886129906e-23
1.82134712806e-22
6.9688776133e-22
1.18372854333e-21
7.85343044816e-22
3.0707038227e-22
8.36511878767e-23
1.72664325445e-23
2.86910061282e-24
3.93505257549e-25
4.51483537579e-26
4.38285670408e-27
3.64023416121e-28
2.61795769131e-29
1.65279966246e-30
9.31160966379e-32
4.78360548483e-33
2.29729354182e-34
9.92570527441e-36
1.30659751968e-37
1.57016894618e-22
1.70057312855e-21
9.09316947175e-21
1.69505353038e-20
9.93738996127e-21
3.36083498859e-21
7.9742191177e-22
1.45991184995e-22
2.19097164122e-23
2.744587267e-24
2.91043206303e-25
2.64736902861e-26
2.09376632103e-27
1.46049542132e-28
9.12140803607e-30
5.18406079583e-31
2.73461283961e-32
1.37428773904e-33
6.13904531783e-35
8.16537220833e-37
1.32726638618e-21
8.73569770399e-21
1.08335385987e-19
1.89824320463e-19
9.65258288848e-20
2.89611387602e-20
6.20558477865e-21
1.05059296338e-21
1.47380399936e-22
1.74285150409e-23
1.76364339035e-24
1.54967119369e-25
1.20015761452e-26
8.31485792068e-28
5.22564417246e-29
3.01972989212e-30
1.63120994754e-31
8.44584082073e-33
3.90676970746e-34
6.38487921888e-36
3.12842191223e-19
4.19377872071e-19
2.0809232225e-18
2.40426786332e-18
9.58001924841e-19
2.47062630652e-19
4.7314099146e-20
7.36871332212e-21
9.62484672048e-22
1.07585136585e-22
1.04618104706e-23
8.98939223687e-25
6.92712191437e-26
4.84714422342e-27
3.10794334016e-28
1.84038495254e-29
1.01870285616e-30
5.40005590054e-32
2.56047986413e-33
5.32430357716e-35
1.03948606578e-16
3.23168679902e-16
8.53877315224e-17
3.55061532518e-17
9.39499818813e-18
1.99277712341e-18
3.38837860532e-19
4.79262872173e-20
5.81423505125e-21
6.17799060513e-22
5.84834417114e-23
5.00701568127e-24
3.92074733278e-25
2.82270247626e-26
1.86869187242e-27
1.13844242787e-28
6.43777069533e-30
3.46133683945e-31
1.645390643e-32
3.75811081965e-34
8.30041629113e-14
2.77002103767e-13
1.09238889022e-14
7.9245517716e-16
9.52801115798e-17
1.42786413822e-17
2.07516256824e-18
2.67152689364e-19
3.0595101726e-20
3.1713986186e-21
3.02167741796e-22
2.67159366597e-23
2.19207276356e-24
1.65566907236e-25
1.13987712543e-26
7.12931453443e-28
4.08591342365e-29
2.19949359607e-30
1.02340246746e-31
2.35856548582e-33
1.71791753526e-11
1.24735055504e-12
2.13090698968e-13
8.20625561966e-15
6.24663202479e-16
6.85327238201e-17
8.82952510405e-18
1.10780660471e-18
1.29139963273e-19
1.41140720851e-20
1.45581676212e-21
1.40576658278e-22
1.24714217897e-23
9.97338800389e-25
7.10820704754e-26
4.5162287413e-27
2.5901823552e-28
1.37581761602e-29
6.14580066589e-31
1.35264266038e-32
6.4657033417e-12
9.25622971969e-11
7.16059700432e-13
1.19869660777e-14
8.68212340724e-16
1.20895412746e-16
1.92453793735e-17
3.0062620214e-18
4.36285255296e-19
5.85962695972e-20
7.18189488077e-21
7.85432214747e-22
7.52688842059e-23
6.26594674021e-24
4.53275835449e-25
2.87496545197e-26
1.62594507891e-27
8.40669422943e-29
3.55637855043e-30
7.23241935642e-32
1.70492323889e-12
1.37783956856e-11
2.1954588243e-13
4.30630075505e-15
5.71894622346e-16
1.41489964365e-16
3.58199794306e-17
8.64550437035e-18
1.77689266775e-18
3.01816611793e-19
4.24066744143e-20
4.96349763272e-21
4.88079791017e-22
4.07074074726e-23
2.91125987534e-24
1.81074129412e-25
9.97024696773e-27
4.96618123338e-28
1.97377060252e-29
3.65148417827e-31
4.54574401454e-13
1.44849435676e-12
2.9462344043e-13
8.82058614849e-15
9.51323411997e-16
4.08112094667e-16
1.67890010642e-16
5.26311773856e-17
1.21009997439e-17
2.125730701e-18
2.97361663741e-19
3.40667934216e-20
3.25695131793e-21
2.63578007162e-22
1.82844862434e-23
1.10234317327e-24
5.8648441879e-26
2.79874916243e-27
1.04221659216e-28
1.74584247114e-30
7.22732527188e-13
1.52044048707e-11
7.0717496335e-11
1.99228060903e-12
8.77794858966e-14
9.81694896602e-15
2.19120736839e-15
5.27462775382e-16
1.04631301591e-16
1.65718001367e-17
2.13991966692e-18
2.30030923511e-19
2.08871446364e-20
1.61969562976e-21
1.08294930837e-22
6.30999544648e-24
3.24032585743e-25
1.48129766358e-26
5.17943784874e-28
7.87189872468e-30
5.96581307684e-12
1.45702580909e-10
8.8834516109e-09
1.39417135776e-10
3.71252030999e-12
2.18647504027e-13
3.03311599099e-14
5.2124041653e-15
8.45257022526e-16
1.17566242325e-16
1.38577515551e-17
1.39368845247e-18
1.20410699834e-19
8.98607437221e-21
5.82279780546e-22
3.29791615378e-23
1.64388965052e-24
7.23874271489e-26
2.39227203501e-27
3.32165645472e-29
2.934376696e-10
1.01169643323e-08
7.30176250303e-07
6.80272341379e-09
1.08987196385e-10
3.75694490239e-12
3.34700004596e-13
4.0163562569e-14
5.27432022184e-15
6.53191262872e-16
7.19513629457e-17
6.94138998334e-18
5.84019830768e-19
4.28082712614e-20
2.7354929443e-21
1.52833780793e-22
7.48836597589e-24
3.2116646641e-25
1.01391632562e-26
1.30002594016e-28
6.74511049891e-10
1.88282155312e-08
9.71053555278e-07
1.09412377854e-08
2.36824396931e-10
9.82546911803e-12
9.65553012378e-13
1.24189117088e-13
1.72252717647e-14
2.24793300409e-15
2.58712623552e-16
2.58414825891e-17
2.23487520393e-18
1.67388846975e-19
1.08677563501e-20
6.13000253351e-22
3.00792804006e-23
1.27639729733e-24
3.90220727706e-26
4.68197251542e-28
2.89837010668e-10
4.35539819189e-09
8.82893314626e-08
5.27344396408e-09
1.67738268416e-10
8.51551993016e-12
1.08151638279e-12
1.89365883022e-13
3.2478821705e-14
4.99101829775e-15
6.52003284259e-16
7.18078686083e-17
6.70008271028e-18
5.32481747747e-19
3.61881443455e-20
2.11071514055e-21
1.05800051846e-22
4.51808996265e-24
1.3570345782e-25
1.54541408319e-27
9.14678705308e-11
8.21617040245e-10
7.70683383278e-09
4.04086527997e-09
9.43940232538e-11
4.45122223488e-12
6.75734334269e-13
1.91874603458e-13
4.3652559725e-14
8.23760212734e-15
1.26473812351e-15
1.58349771959e-16
1.63730297432e-17
1.41340521381e-18
1.02624758451e-19
6.30158744374e-21
3.27886634368e-22
1.4298768259e-23
4.27354510517e-25
4.68284067139e-27
3.45169538017e-11
3.2861403784e-10
5.86970808041e-09
2.31877295054e-07
2.47750770413e-09
4.02892109949e-11
1.43576099849e-12
2.43555144414e-13
5.67652798533e-14
1.21211981093e-14
2.12789058514e-15
3.009568514e-16
3.45763054175e-17
3.26409058419e-18
2.55404909647e-19
1.66688076541e-20
9.09409517147e-22
4.09189043772e-23
1.22877480788e-24
1.31145759127e-26
3.95666501931e-11
5.94968607593e-10
1.33137172465e-08
6.35587691419e-07
7.76658011108e-09
1.23262269149e-10
4.12818194472e-12
4.66639626811e-13
8.83454117171e-14
1.85352010497e-14
3.46340791098e-15
5.33822004988e-16
6.69491208706e-17
6.85771124096e-18
5.77075548634e-19
4.0091275104e-20
2.30258680399e-21
1.07505758149e-22
3.26411407798e-24
3.42852155598e-26
6.97193074683e-11
1.02532304732e-09
1.98333899589e-08
7.48796871748e-07
1.14315862209e-08
2.53830769954e-10
1.04433472474e-11
1.042943302e-12
1.66394007592e-13
3.16375432395e-14
5.84959680557e-15
9.36591229338e-16
1.24532037881e-16
1.36050567685e-17
1.21963420954e-18
8.98068203751e-20
5.4259694931e-21
2.63357519317e-22
8.112368967e-24
8.45851169648e-26
7.07152600097e-11
8.47495222208e-10
1.26456212177e-08
3.33499816254e-07
1.58692269444e-08
4.25647755814e-10
1.72552399207e-11
1.46948855554e-12
2.52602251292e-13
4.97862046853e-14
9.52398813207e-15
1.59386053835e-15
2.23285584287e-16
2.58035616541e-17
2.44767203733e-18
1.90202646076e-19
1.2066206788e-20
6.08955802539e-22
1.90670270607e-23
1.98809496672e-25
4.30056267272e-11
3.80484406872e-10
3.79569599492e-09
5.80394777262e-08
8.09749676927e-09
2.08941525101e-10
8.87454512998e-12
7.98943123677e-13
2.35451681833e-13
6.02400432836e-14
1.33478252411e-14
2.47048707774e-15
3.74302176186e-16
4.62448151737e-17
4.65844185902e-18
3.82396802703e-19
2.54854040043e-20
1.33871083763e-21
4.26872526343e-23
4.48098026594e-25
2.15123798425e-11
1.49862685181e-10
1.17117728423e-09
1.41695817063e-08
1.76879502437e-07
2.44866234908e-09
4.44488271585e-11
1.62858451883e-12
2.7375259707e-13
7.08516505193e-14
1.73182354144e-14
3.543326166e-15
5.86004780704e-16
7.8046776088e-17
8.39502860306e-18
7.30465494518e-19
5.12682097704e-20
2.80881063521e-21
9.14188892453e-23
9.72134222446e-25
1.37127969965e-11
1.02129617725e-10
1.00462134147e-09
1.56520616205e-08
4.08875027306e-07
7.05344652069e-09
1.56655282476e-10
5.83501973543e-12
5.76885670402e-13
1.07070921367e-13
2.41113991839e-14
5.06322352425e-15
8.88250980326e-16
1.26230321986e-16
1.44553723995e-17
1.33308400058e-18
9.86354370591e-20
5.64488012891e-21
1.87892152155e-22
2.03495413418e-24
1.46004190772e-11
1.22870048857e-10
1.29984624807e-09
1.90323521091e-08
5.12781800317e-07
2.03771064586e-08
5.19946583981e-10
1.89706824342e-11
1.395745594e-12
2.02024359416e-13
3.83827489785e-14
7.62635159552e-15
1.35365672671e-15
2.00313402667e-16
2.41318041639e-17
2.34599900866e-18
1.82634508089e-19
1.09161135388e-20
3.71911804602e-22
4.1199113694e-24
1.74425181125e-11
1.40036991859e-10
1.34637439882e-09
1.69623221672e-08
3.94840682855e-07
2.54522488947e-08
5.67404516015e-10
1.87862885763e-11
1.19471785044e-12
2.30868899867e-13
5.0359888335e-14
1.0668702236e-14
1.98620689604e-15
3.08289242967e-16
3.90430394064e-17
3.99356193152e-18
3.26690455255e-19
2.03835477312e-20
7.11075525199e-22
8.08367918755e-24
1.67647471928e-11
1.17155644532e-10
9.52327751367e-10
9.77311052293e-09
1.67579191841e-07
1.55655059524e-08
3.49121662855e-10
1.08148477884e-11
6.74761672402e-13
1.93240847591e-13
5.39455167516e-14
1.31701701323e-14
2.69555866137e-15
4.49734793438e-16
6.05609675851e-17
6.54975225555e-18
5.64213384581e-19
3.67858322316e-20
1.31493844821e-21
1.53846875762e-23
1.34154278638e-11
8.10264587586e-11
5.62805770238e-10
4.84365508073e-09
6.48484391104e-08
9.39115087483e-09
2.33353782118e-10
6.33408396202e-12
3.69118235357e-13
1.39324710983e-13
5.09661042557e-14
1.46954074322e-14
3.38354139402e-15
6.17782757048e-16
8.95112018513e-17
1.03091225013e-17
9.3900550644e-19
6.41205072915e-20
2.35165928148e-21
2.83905367212e-23
1.05323613723e-11
5.84416913351e-11
3.80973915313e-10
3.12663572569e-09
3.83924772526e-08
2.3088332051e-07
5.20172273532e-09
1.0769203277e-10
3.42078034466e-12
2.92513126903e-13
6.24262532358e-14
1.70026133284e-14
4.14470322367e-15
8.15999298577e-16
1.27031436096e-16
1.56103288676e-17
1.506906368e-18
1.07962439401e-19
4.06688078038e-21
5.07670710687e-23
9.33162202516e-12
5.05394049123e-11
3.27093774023e-10
2.65124755011e-09
3.04625361021e-08
3.42719068199e-07
1.57409132741e-08
3.7658123727e-10
1.20045858865e-11
7.40305939003e-13
1.0661099206e-13
2.28710763188e-14
5.28778869129e-15
1.0710705409e-15
1.75922361855e-16
2.29189234225e-17
2.34054640565e-18
1.75895913982e-19
6.80542388737e-21
8.79500824796e-23
9.6425159055e-12
5.13670121428e-11
3.25864116087e-10
2.53833562906e-09
2.67909209831e-08
3.78379486597e-07
2.50562012085e-08
5.50029303931e-10
1.54528746168e-11
7.33229504983e-13
1.25110891848e-13
2.82075941942e-14
6.61690978568e-15
1.38352749227e-15
2.38218971977e-16
3.27410124098e-17
3.52815799009e-18
2.77773886223e-19
1.10287478595e-20
1.4762449082e-22
1.04790844868e-11
5.30832433562e-11
3.16686198695e-10
2.27692922275e-09
2.14434176309e-08
2.97968447919e-07
2.49550167259e-08
5.63183753724e-10
1.41487512748e-11
6.09762098158e-13
1.16876376401e-13
3.03840142626e-14
7.73648669238e-15
1.71794226532e-15
3.12734652867e-16
4.54120393304e-17
5.16179151633e-18
4.25410400113e-19
1.73142330414e-20
2.40028947835e-22
1.13841833512e-11
5.41402719734e-11
3.01875258006e-10
2.01124439319e-09
1.71868883195e-08
2.07405965297e-07
1.928455311e-08
5.20333185841e-10
1.32607694624e-11
5.3480186332e-13
9.71972189703e-14
2.94191059851e-14
8.39602128123e-15
2.02727223532e-15
3.95089552157e-16
6.09399969387e-17
7.31995032814e-18
6.31596983594e-19
2.6325506973e-20
3.7787805788e-22
1.21172163045e-11
5.39216796409e-11
2.80881675551e-10
1.73846617967e-09
1.35700960077e-08
1.4315274573e-07
1.46370423703e-08
6.21954305856e-10
1.5863838683e-11
5.6669467342e-13
7.67378782444e-14
2.62335807484e-14
8.49893384188e-15
2.26503694194e-15
4.77944056837e-16
7.88382815037e-17
1.00413084987e-17
9.08068474802e-19
3.87362995233e-20
5.75582672549e-22
1.26565855882e-11
5.28473588033e-11
2.58388297522e-10
1.49616391006e-09
1.07839326421e-08
1.01333831287e-07
1.15995090672e-07
5.63787417089e-09
1.1652647759e-10
2.91147214516e-12
1.52761860397e-13
2.90707769634e-14
8.72098480512e-15
2.4516918217e-15
5.56179766503e-16
9.8271479411e-17
1.33047230752e-17
1.26263180372e-18
5.50975780269e-20
8.4740501771e-22
1.34162211164e-11
5.31855942698e-11
2.47565127554e-10
1.36383130852e-09
9.26019199652e-09
7.98922133225e-08
2.48259643585e-07
1.56402519144e-08
3.33557533011e-10
7.44097333336e-12
2.6274183646e-13
3.65959258697e-14
9.3698650017e-15
2.63093912566e-15
6.29178960237e-16
1.18466227496e-16
1.70414168687e-17
1.69741072304e-18
7.57044058977e-20
1.20502652601e-21
1.46645174959e-11
5.55375632574e-11
2.47163733135e-10
1.29763296841e-09
8.29539771291e-09
6.55758686272e-08
2.78903221099e-07
2.16498810257e-08
5.17082241303e-10
1.11962325408e-11
3.56949593107e-13
4.40986099017e-14
1.02420161015e-14
2.82140137427e-15
6.98970489113e-16
1.39045754278e-16
2.11785862693e-17
2.21019174513e-18
1.00572993862e-19
1.65626770875e-21
1.65823819659e-11
6.0143531878e-11
2.56226459727e-10
1.28297750017e-09
7.73787390527e-09
5.62858266878e-08
2.71328455237e-07
2.35810802362e-08
6.84306749709e-10
1.50930290563e-11
4.60312744526e-13
5.01300358894e-14
1.10761715372e-14
3.01359280019e-15
7.66741008808e-16
1.59887260021e-16
2.56600537953e-17
2.79650769748e-18
1.2950363283e-19
2.20530103305e-21
1.93286403069e-11
6.7201415653e-11
2.74218385021e-10
1.31071176679e-09
7.47504923991e-09
5.02196243188e-08
2.48321095016e-07
2.30825241296e-08
9.14026847904e-10
2.0444647305e-11
5.80216948471e-13
5.2354274517e-14
1.14203752195e-14
3.14950515648e-15
8.27010095953e-16
1.80336245512e-16
3.03890558458e-17
3.44694751344e-18
1.62007430105e-19
2.85100039629e-21
2.30078895644e-11
7.66724445302e-11
2.9957107707e-10
1.36665687263e-09
7.37267797986e-09
4.57666797698e-08
2.17543948965e-07
2.12662122341e-08
1.06277985476e-09
2.40228708397e-11
6.20773242681e-13
4.48906094419e-14
1.05280229653e-14
3.11603096312e-15
8.64183701421e-16
1.98413140041e-16
3.5130493519e-17
4.13959371677e-18
1.97020710316e-19
3.58128942547e-21
2.76482403338e-11
8.82555181552e-11
3.29877358927e-10
1.43476516077e-09
7.30922708476e-09
4.17643417804e-08
1.85378603016e-07
1.89342294024e-08
1.14594728236e-09
2.71205948796e-11
6.29797215197e-13
3.24736159802e-14
8.52776263275e-15
2.86356881321e-15
8.63279496762e-16
2.11393446949e-16
3.95077478261e-17
4.83675079934e-18
2.32756769274e-19
4.36904485448e-21
3.3413991614e-11
1.02249030045e-10
3.65906537524e-10
1.51836508603e-09
7.3027709281e-09
3.83371682964e-08
1.57039994208e-07
1.66883520769e-08
1.16975799096e-09
3.03755157896e-11
6.50998854624e-13
2.25210070183e-14
6.19670879932e-15
2.44501614503e-15
8.20396389322e-16
2.17128993712e-16
4.31069907449e-17
5.49065351973e-18
2.66966126111e-19
5.17559276264e-21
4.08381288599e-11
1.2007103767e-10
4.12311396118e-10
1.63525547863e-09
7.42603983747e-09
3.5804683966e-08
1.35485253712e-07
2.31785906792e-08
1.73472009575e-09
5.0287950035e-11
1.00057587566e-12
2.62959086505e-14
4.65770215746e-15
1.99400542507e-15
7.45731439127e-16
2.1497827272e-16
4.55881344755e-17
6.05157683658e-18
2.97291932152e-19
5.95627969872e-21
5.12181590974e-11
1.4518275855e-10
4.79976627977e-10
1.82411019891e-09
7.82956090717e-09
3.48542454209e-08
1.25171174097e-07
8.50946094694e-08
6.39881362677e-09
2.24258476596e-10
4.25533259278e-12
9.07037040326e-14
6.45717099748e-15
1.78007568815e-15
6.69357480474e-16
2.06830341644e-16
4.68093864131e-17
6.47603814144e-18
3.21450332654e-19
6.66082913649e-21
6.64474533656e-11
1.81746509032e-10
5.78472160164e-10
2.10256657846e-09
8.49498128893e-09
3.48953667236e-08
1.1910400719e-07
1.31026465823e-07
1.08874123726e-08
4.42416526512e-10
8.97408795911e-12
1.82707566277e-13
9.7183361303e-15
1.79601785417e-15
6.10252916617e-16
1.95524735347e-16
4.68359031229e-17
6.73371176167e-18
3.37424429503e-19
7.23394488529e-21
8.92611942258e-11
2.35043683619e-10
7.17819503102e-10
2.48181295812e-09
9.37496435451e-09
3.54300606276e-08
1.13935934495e-07
1.49582107542e-07
1.34755306293e-08
6.40893293215e-10
1.42725146328e-11
2.76764986756e-13
1.18625490233e-14
1.83182518899e-15
5.62936400196e-16
1.82703763503e-16
4.58323915693e-17
6.81177630879e-18
3.43916435729e-19
7.62632231623e-21
1.24313383433e-10
3.13607514449e-10
9.1374466794e-10
2.9836150753e-09
1.04660682811e-08
3.63228866057e-08
1.09213140356e-07
1.54287477801e-07
1.47442263287e-08
7.98894337894e-10
2.29849826024e-11
4.24385221588e-13
1.39221901365e-14
1.82873290731e-15
5.19099842982e-16
1.68975024631e-16
4.39893475522e-17
6.71599527075e-18
3.40795034926e-19
7.81096386768e-21
1.80148838059e-10
4.32159768659e-10
1.19194660466e-09
3.64627251739e-09
1.18167269185e-08
3.77128059653e-08
1.05986960876e-07
1.51929272821e-07
1.52075545781e-08
9.13117674352e-10
3.34137996381e-11
7.38046979159e-13
1.91225309945e-14
1.91981349526e-15
4.83337440597e-16
1.55205886023e-16
4.1530436594e-17
6.46806384384e-18
3.29055902926e-19
7.78816468952e-21
2.71783927835e-10
6.13831378142e-10
1.5871392409e-09
4.51155959791e-09
1.34641172524e-08
3.96256940735e-08
1.03985233294e-07
1.45206950503e-07
1.51119238938e-08
9.83824296809e-10
4.57984258559e-11
1.28284033308e-12
3.00308721391e-14
2.22165402676e-15
4.64785447037e-16
1.42668589339e-16
3.8713763293e-17
6.10006862618e-18
3.10336501451e-19
7.57594508885e-21
4.23706309241e-10
8.91664933419e-10
2.14081224168e-09
5.61922474513e-09
1.54363373607e-08
4.20469055631e-08
1.02732359856e-07
1.3490309746e-07
1.45522056559e-08
1.01469854112e-09
5.96139155581e-11
2.09869436991e-12
5.06585684414e-14
2.81878956645e-15
4.70295263689e-16
1.32608397304e-16
3.58098709091e-17
5.64955957935e-18
2.86485628998e-19
7.19977444387e-21
6.71538076478e-10
1.30739476837e-09
2.89654654653e-09
7.00400565079e-09
1.77569004456e-08
4.49208552689e-08
1.01553558596e-07
1.20463912231e-07
1.34426729686e-08
9.96354652607e-10
6.90569355702e-11
3.02487035143e-12
8.3022881995e-14
3.66286528002e-15
4.94581303866e-16
1.25267238417e-16
3.30272079699e-17
5.15412573216e-18
2.59370916012e-19
6.69016458736e-21
1.05914354395e-09
1.90574998673e-09
3.89413300133e-09
8.69554907535e-09
2.04402469726e-08
4.80817098508e-08
9.92285410185e-08
9.83229216609e-08
1.13841677741e-08
9.70352959884e-10
7.51358983891e-11
4.02993895067e-12
1.31531298661e-13
4.84831823755e-15
5.33034462555e-16
1.20276354145e-16
3.04854670052e-17
4.64649138739e-18
2.30755898037e-19
6.08297746668e-21
1.6302585494e-09
2.72683561693e-09
5.16649369685e-09
1.07146626949e-08
2.34378339245e-08
5.09517923159e-08
9.24893862993e-08
5.42030886569e-08
6.81766274901e-09
6.99060604147e-10
6.31314933601e-11
4.25005885022e-12
1.7222629994e-13
5.93216567566e-15
5.54357843356e-16
1.15061755937e-16
2.80788086586e-17
4.14341450637e-18
2.0194746724e-19
5.41372191923e-21
2.42962733209e-09
3.82259039473e-09
6.78988981597e-09
1.32056383722e-08
2.70518813098e-08
5.42791910412e-08
8.52909414002e-08
1.97273901031e-08
2.98635728572e-09
3.74349028118e-10
4.05523614035e-11
3.47006330514e-12
1.79438367519e-13
6.48024444484e-15
5.28356892015e-16
1.0614103648e-16
2.5489172627e-17
3.64016258897e-18
1.73498957993e-19
4.70865887075e-21
3.52296086866e-09
5.28780519962e-09
8.9219573275e-09
1.64515775019e-08
3.18000309574e-08
5.91805811499e-08
8.25550070393e-08
1.51325870684e-08
2.2518117286e-09
2.9165651431e-10
3.32674586222e-11
3.29820766576e-12
2.04114587327e-13
8.00274783588e-15
5.18254944283e-16
9.56408814061e-17
2.26596815573e-17
3.13286231826e-18
1.45720597495e-19
3.99038581388e-21
5.02297782043e-09
7.27021573976e-09
1.17558275108e-08
2.06528221486e-08
3.7636482654e-08
6.44835474985e-08
8.0098153395e-08
1.50986735842e-08
2.36103989635e-09
3.21909193108e-10
3.84070661463e-11
4.22380644808e-12
3.02626299883e-13
1.32153887399e-14
6.51336511684e-16
9.16752714111e-17
2.00761966178e-17
2.64435111191e-18
1.19493870733e-19
3.29201318795e-21
7.1106328876e-09
9.96954363779e-09
1.54763037705e-08
2.58225052514e-08
4.38971969004e-08
6.7802500723e-08
7.26179269747e-08
1.4705428819e-08
2.5126672694e-09
3.750661715e-10
4.88125647018e-11
6.00740149304e-12
4.99258337498e-13
2.54989030598e-14
1.08992530739e-15
1.04803591665e-16
1.86005674635e-17
2.22649321266e-18
9.65645653977e-20
2.66482461547e-21
1.00229697325e-08
1.35848739398e-08
2.01260924313e-08
3.14954212135e-08
4.87364327254e-08
6.449641239e-08
4.85379065201e-08
1.10057063996e-08
2.12070118e-09
3.57466407232e-10
5.25050825252e-11
7.44436129412e-12
7.27732626119e-13
4.54878665691e-14
1.96863423531e-15
1.41193948439e-16
1.88374558597e-17
1.92663947112e-18
7.86951443383e-20
2.1616612944e-21
1.40715689863e-08
1.83527555211e-08
2.57377150919e-08
3.72513272876e-08
5.12288113904e-08
5.56276150347e-08
1.91801125303e-08
5.28672797867e-09
1.21381232335e-09
2.40890198957e-10
4.14312928482e-11
7.11996211318e-12
8.31567454086e-13
6.59524015308e-14
3.19120690008e-15
1.9202720659e-16
2.02558638316e-17
1.73445925453e-18
6.61363690608e-20
1.80422619505e-21
1.95317787677e-08
2.43802422174e-08
3.20920014486e-08
4.24490796035e-08
5.12444437646e-08
4.51264990586e-08
1.33952904625e-08
3.56848264674e-09
8.43840792458e-10
1.78260749692e-10
3.34229954008e-11
6.53924097415e-12
8.79862407646e-13
8.51089943921e-14
4.74401559734e-15
2.49576118084e-16
2.18599405282e-17
1.59685186125e-18
5.76413789182e-20
1.57645736098e-21
2.6006640232e-08
3.06667905785e-08
3.70453673792e-08
4.30094133622e-08
4.14413687886e-08
1.76616453936e-08
6.25189462988e-09
1.9003700428e-09
5.04724952441e-10
1.18687520275e-10
2.48131184592e-11
5.57323693962e-12
8.62990282925e-13
9.9204043176e-14
6.63918771908e-15
3.15047864552e-16
2.29928305345e-17
1.4650904146e-18
5.16413618093e-20
1.44623943178e-21
3.19566704543e-08
3.49430748277e-08
3.74060906509e-08
3.52206292497e-08
1.99193833553e-08
8.19335496943e-09
3.01960496093e-09
9.85588502015e-10
2.86012408865e-10
7.39223089347e-11
1.71751419844e-11
4.44489769042e-12
7.92176724224e-13
1.06501484623e-13
8.66812367837e-15
3.93691448583e-16
2.33942956554e-17
1.31379209659e-18
4.6872757288e-20
1.38069576695e-21
3.3314713078e-08
3.23612976209e-08
2.78002733718e-08
1.57269545567e-08
7.83777314855e-09
3.47948625325e-09
1.37871543832e-09
4.87761488416e-10
1.54572392735e-10
4.38319839581e-11
1.13449119833e-11
3.43633696765e-12
7.09921402137e-13
1.10984710812e-13
1.08935854797e-14
5.07244932179e-16
2.2790608308e-17
1.11914182376e-18
4.18782769864e-20
1.33227602994e-21
1.05479198864e-36
4.04564397804e-38
5.81869365876e-36
3.56094304399e-37
3.82556730187e-35
3.32965150258e-36
2.11384442106e-34
1.67474548267e-35
1.01716995671e-33
6.8163275804e-35
4.53772110793e-33
2.56726935822e-34
1.93420184982e-32
9.28939853442e-34
7.92685044598e-32
3.25220074925e-33
3.1161506554e-31
1.09820591283e-32
1.16859196482e-30
3.55066036446e-32
4.14713103062e-30
1.08789493399e-31
1.38081628243e-29
3.32644281331e-31
4.28856399252e-29
1.01118921032e-30
1.24162674311e-28
2.89263953292e-30
3.36588000598e-28
7.79659663471e-30
8.61065991001e-28
1.99297791005e-29
2.097766027e-27
4.87074314568e-29
4.90679591573e-27
1.14648653298e-28
1.10808688198e-26
2.61208604988e-28
2.42254604003e-26
5.77818233197e-28
5.13521722289e-26
1.24075442066e-27
1.05710857155e-25
2.58585502247e-27
2.11611260823e-25
5.23680781267e-27
4.12074884449e-25
1.03090919599e-26
7.79969139785e-25
1.9714771234e-26
1.43269371713e-24
3.66147703565e-26
2.55174180995e-24
6.58720874946e-26
4.40448099534e-24
1.14720592544e-25
7.36363583011e-24
1.93318141847e-25
1.19168191184e-23
3.15057745518e-25
1.86544774374e-23
4.96318391404e-25
2.82203923118e-23
7.55217387658e-25
4.12326535382e-23
1.10952647392e-24
5.8230344872e-23
1.5752048711e-24
7.96669860863e-23
2.16618221014e-24
1.05837052253e-22
2.89235383941e-24
1.3663850031e-22
3.75299811273e-24
1.71359592096e-22
4.73061908176e-24
2.08746093667e-22
5.79244049951e-24
2.47160706689e-22
6.89453393591e-24
2.84509203565e-22
7.97921183529e-24
3.18159646395e-22
8.97195142745e-24
3.45389914831e-22
9.79368140781e-24
3.64224465302e-22
1.03851670887e-23
3.7383144713e-22
1.07193487062e-23
3.74184389819e-22
1.07922023002e-23
3.65622163356e-22
1.06103359454e-23
3.48821871301e-22
1.0190915159e-23
3.24956210306e-22
9.56739719808e-24
2.95541508306e-22
8.78637459595e-24
2.61992652402e-22
7.89531613086e-24
2.25802839835e-22
6.9480565231e-24
1.89173679239e-22
6.02434104782e-24
1.55402879317e-22
5.24577249296e-24
1.27990035683e-22
4.75961402285e-24
1.08856765921e-22
4.70476868114e-24
9.7866871948e-23
5.24231440525e-24
9.39673311407e-23
6.66154008039e-24
9.63326763248e-23
9.60685279713e-24
1.05244136735e-22
1.83684828104e-23
)
;

boundaryField
{
    inletfuel
    {
        type            fixedValue;
        value           uniform 0;
    }
    inletair
    {