/*--------------------------------*- C++ -*----------------------------------*\
  =========                 |
  \\      /  F ield         | OpenFOAM: The Open Source CFD Toolbox
   \\    /   O peration     | Website:  https://openfoam.org
    \\  /    A nd           | Version:  dev
     \\/     M anipulation  |
\*---------------------------------------------------------------------------*/
FoamFile
{
    version     2.0;
    format      ascii;
    class       volScalarField;
    location    "0.3";
    object      CH2O;
}
// * * * * * * * * * * * * * * * * * * * * * * * * * * * * * * * * * * * * * //

dimensions      [0 0 0 0 0 0 0];

internalField   nonuniform List<scalar> 
1629
(
7.12488143699e-19
6.73870978931e-19
5.41357856619e-19
9.87162276161e-17
1.33806522587e-16
2.27839815804e-16
7.43320817245e-15
1.54132036714e-14
5.50325391548e-14
4.19702488694e-13
1.29826027897e-12
8.805888125e-12
1.71731396154e-11
5.66183160986e-11
3.17474113249e-10
6.74318708997e-10
2.42542814028e-09
1.23201473885e-08
2.04796601168e-08
7.48416871337e-08
3.42414880569e-07
3.83895341879e-07
1.34840965201e-06
5.79279528334e-06
2.04167156953e-06
5.67892734873e-06
1.8784743362e-05
6.51615562927e-06
1.44661335296e-05
3.79687953009e-05
1.5346738261e-05
2.81331094687e-05
6.08946179133e-05
2.97498448177e-05
4.70697861423e-05
8.79697949759e-05
5.07550162683e-05
7.22098934394e-05
0.000121193168822
7.89314038112e-05
0.00010388028489
0.000159768336346
0.000114038218722
0.000141451588368
0.0002018409257
0.000154875482619
0.000183393511187
0.000245150092343
0.000199560804218
0.000227753249876
0.000287799509537
0.000245946446423
0.000272554696502
0.000328355341457
0.000291961490974
0.000316044343416
0.000365847817757
0.000335849271911
0.000356845325918
0.000399754312628
0.000376352369201
0.000394076332192
0.000429971293169
0.000412779959276
0.000427341139578
0.000456642253602
0.00044485234418
0.000456516632159
0.000479863673191
0.000472428144885
0.000481500911502
0.00049954594043
0.000495377339839
0.00050215564073
0.000515510103333
0.000513654563342
0.000518433955096
0.000527707608893
0.000527384913955
0.000530470934164
0.000536296164745
0.000536829383618
0.000538521961452
0.000541517178675
0.000542287000646
0.000542859569845
0.000543583300645
0.000544046910754
0.00054373743227
0.000542672834791
0.00054238119905
0.00054139388267
0.000538956025338
0.00053754377454
0.000536050226824
0.000532587624004
0.000529775641142
0.000527915886913
0.000523711693306
0.000519314726043
0.000517200270039
0.000512479443724
0.000506390632384
0.00050410704032
0.000499041375901
0.000491191211617
0.000488799372797
0.000483512287608
0.000473844957513
0.00047138588972
0.000465960552003
0.000454415552957
0.000451915107275
0.000446404665763
0.000432894981745
0.000430370334896
0.000424811352534
0.000409201577896
0.000406668349756
0.000401096085126
0.000383215652389
0.000380693847441
0.000375153789661
0.000354867463161
0.000352383564067
0.000346934348896
0.000324207701175
0.000321792663531
0.000316501917949
0.000291428065377
0.000289115640657
0.000284056893101
0.000256877983177
0.000254705751835
0.000249961120276
0.000221139046045
0.000219150448927
0.0002148148072
0.000185167554848
0.000183410708713
0.000179588270889
0.000150382339317
0.000148900529105
0.000145683303349
0.000118456191574
0.000117270292322
0.000114699949786
9.07258848889e-05
8.98212893704e-05
8.7862384294e-05
6.76515449888e-05
6.69851268521e-05
6.55421016079e-05
4.89185827312e-05
4.84409407191e-05
4.74066066316e-05
3.40293884326e-05
3.37005607705e-05
3.29889057516e-05
2.26690542336e-05
2.24586354863e-05
2.20040476602e-05
1.46019843739e-05
1.44830804331e-05
1.42271154188e-05
9.43310337918e-06
9.3796662327e-06
9.26559241209e-06
6.54648503743e-06
6.53490617845e-06
6.51132560189e-06
5.22693813226e-06
5.23826466395e-06
5.26396336394e-06
4.82196689505e-06
4.84273701637e-06
4.88845008756e-06
4.8267600021e-06
4.84801434212e-06
4.89426007126e-06
4.88532127486e-06
4.90069241611e-06
4.93357864564e-06
4.75500598856e-06
4.75917891951e-06
4.76707083519e-06
4.20806075613e-06
4.19430443316e-06
4.16242475357e-06
4.75858206978e-11
1.27116323314e-09
4.21831546696e-08
1.12177490454e-06
2.0267268076e-05
5.2753895287e-05
8.77335520242e-05
0.000119723677127
0.00015506536398
0.000198888003151
0.000245342290952
0.000290807318577
0.000332643946541
0.000369878662364
0.000402221207888
0.000429937601989
0.000453682347454
0.000474287051496
0.000492361220485
0.000507999830625
0.00052097296615
0.000531015276438
0.000538089324626
0.000542383490053
0.000544105439213
0.000543375669497
0.000540272271766
0.00053487846528
0.000527262104597
0.000517483119478
0.000505620638641
0.000491760149466
0.000475958634671
0.000458236499042
0.00043857746387
0.000416930574847
0.00039321379157
0.000367336978353
0.000339266444727
0.000309076948374
0.000276976797039
0.000243340374809
0.000208785424825
0.000174292973601
0.000141243597309
0.000111163819804
8.51715391212e-05
6.356007986e-05
4.59858246242e-05
3.2012544395e-05
2.1382482035e-05
1.38794882017e-05
9.11310625965e-06
6.48271350822e-06
5.30217467287e-06
4.95301741245e-06
4.95822581726e-06
4.97761718513e-06
4.77489260121e-06
4.11324113434e-06
7.98529622679e-16
3.87377571243e-15
9.21591834889e-15
1.25544281331e-14
9.62898144179e-15
4.80333673036e-15
1.71704553033e-15
4.6619628037e-16
1.00663048505e-16
1.77315355112e-17
2.57956436123e-18
3.12560635428e-19
3.17594543702e-20
2.7241125411e-21
1.98734080293e-22
1.24528307657e-23
6.7985052784e-25
3.29107817009e-26
1.4359790498e-27
3.2937591662e-29
1.68265466401e-14
6.80466315158e-14
1.87712674613e-13
2.74275407607e-13
1.92285553139e-13
8.38421098936e-14
2.59443086909e-14
6.1262313692e-15
1.16654139595e-15
1.83197855147e-16
2.39989716991e-17
2.64532793043e-18
2.47183081937e-19
1.97263025243e-20
1.35634100783e-21
8.12897455371e-23
4.32180504344e-24
2.08297903897e-25
9.04105360271e-27
2.06184465173e-28
5.35817432897e-13
7.5284460752e-13
2.31272137687e-12
3.53660398758e-12
2.23812637798e-12
8.59422753772e-13
2.34607948376e-13
4.95466383992e-14
8.55824214538e-15
1.22892911434e-15
1.48391955365e-16
1.52029938283e-17
1.33188365548e-18
1.00568213309e-19
6.60808850157e-21
3.82878549361e-22
1.99572220394e-23
9.6378421538e-25
4.20998381557e-26
9.07245280983e-28
2.72237549546e-11
1.05138803113e-11
2.67963939065e-11
3.66640478717e-11
2.06118821358e-11
7.14788171801e-12
1.78226191418e-12
3.50195723056e-13
5.67057788808e-14
7.68634156994e-15
8.82199114169e-16
8.64892361053e-17
7.29740077316e-18
5.34033693227e-19
3.42308802849e-20
1.94910782037e-21
1.00762842022e-22
4.89371097278e-24
2.19460484425e-25
5.71961980723e-27
1.85539969755e-09
4.44012391003e-10
4.60268170832e-10
4.22891034891e-10
1.94207999165e-10
5.93858100677e-11
1.34212511425e-11
2.44201817408e-12
3.69196168254e-13
4.72324426972e-14
5.17087199684e-15
4.88136301826e-16
3.99855810118e-17
2.86145626079e-18
1.8053172036e-19
1.01834011673e-20
5.25279447295e-22
2.57159338318e-23
1.18519672637e-24
3.86648021323e-26
1.02997726489e-07
4.77938073131e-08
1.33699259095e-08
5.54426091472e-09
1.82321020238e-09
4.75223052784e-10
9.67539392282e-11
1.60901936709e-11
2.26010606076e-12
2.73011639982e-13
2.86163797534e-14
2.61611111897e-15
2.09442252862e-16
1.47571400312e-17
9.22286046302e-19
5.18113772667e-20
2.67525900181e-21
1.31894330865e-22
6.15866541566e-24
2.26336494983e-25
3.89218534037e-06
5.07782378349e-06
7.21147490352e-07
1.05493567916e-07
1.83122241617e-08
3.54583930436e-09
6.23921196539e-10
9.42989896911e-11
1.2377644739e-11
1.42608345442e-12
1.44781402639e-13
1.29647783213e-14
1.02500564473e-15
7.1748599571e-17
4.47455097833e-18
2.51668128237e-19
1.30397394525e-20
6.45595525001e-22
3.00397513659e-23
1.15633380624e-24
9.472575119e-05
1.20831890648e-05
1.44783579091e-05
1.70976253271e-06
1.75599979339e-07
2.17247543915e-08
3.15417587109e-09
4.43008265751e-10
5.62889775178e-11
6.39414358996e-12
6.46250445784e-13
5.79305237855e-14
4.59988853246e-15
3.24024152074e-16
2.03576195815e-17
1.15374255902e-18
6.01541947769e-20
2.98365752599e-21
1.3672627958e-22
5.23802680751e-24
0.000198549136158
0.00116544189792
5.54590061841e-05
4.06763835021e-06
4.36223526715e-07
5.88539355866e-08
9.30692204089e-09
1.43430742076e-09
1.96418331139e-10
2.35757633088e-11
2.48259598297e-12
2.29745437773e-13
1.87192118244e-14
1.34735921227e-15
8.62035731733e-17
4.95785894237e-18
2.6100681915e-19
1.29571095512e-20
5.80969615827e-22
2.1440161644e-23
0.000259578749841
0.000953300582308
9.79061138449e-05
5.58019835811e-06
7.19784403317e-07
1.16973398196e-07
2.13380936427e-08
3.73885064752e-09
5.70565083507e-10
7.45304872468e-11
8.37912477521e-12
8.16303491294e-13
6.93060439476e-14
5.15840328593e-15
3.39118944759e-16
1.99172789838e-17
1.06241802621e-18
5.28040649162e-20
2.31091652871e-21
8.07609605771e-23
0.000288310162591
0.000722431608417
0.000143957589253
1.4000703334e-05
1.99303838173e-06
3.02300901658e-07
5.28313652091e-08
9.51937909923e-09
1.54559163761e-09
2.15783974871e-10
2.57963229579e-11
2.65271128607e-12
2.35987038174e-13
1.82761222753e-14
1.24169590263e-15
7.4818356023e-17
4.05622031959e-18
2.02091689587e-19
8.63515837039e-21
2.83825184792e-22
0.000335369077381
0.000907183822187
6.4724295969e-05
2.01789270835e-05
3.94679871338e-06
6.85545914904e-07
1.21657758848e-07
2.25425501609e-08
3.87097859906e-09
5.75393194286e-10
7.30700977942e-11
7.9442287863e-12
7.43006603793e-13
6.01256811186e-14
4.23964795211e-15
2.63068240022e-16
1.45388012694e-17
7.27633746186e-19
3.04234205101e-20
9.39885085218e-22
0.000406402857614
0.00113754177819
7.87563016424e-05
3.80887601205e-05
6.55023581912e-06
1.22401935929e-06
2.32643945824e-07
4.60555044374e-08
8.5787539799e-09
1.38210719878e-09
1.88652287734e-10
2.18612510792e-11
2.16289416285e-12
1.83828260493e-13
1.35130657963e-14
8.66751521711e-16
4.89931419023e-17
2.4702899432e-18
1.01440926161e-19
2.95607142787e-21
0.000463580048575
0.00108517938089
0.000100364663922
8.27346642818e-05
1.14579219022e-05
2.08037380461e-06
4.09986022441e-07
8.58219013756e-08
1.72783585707e-08
3.02814122304e-09
4.46906491217e-10
5.55162667039e-11
5.84015461039e-12
5.23696434083e-13
4.02947923938e-14
2.68145300927e-15
1.55557208984e-16
7.92987030517e-18
3.21327188597e-19
8.89041936977e-21
0.000506104147579
0.00100522708059
0.000156613683849
0.000202118133276
2.93583846547e-05
4.90926385966e-06
8.58667460985e-07
1.68505361737e-07
3.42601601381e-08
6.32504117245e-09
9.95838601519e-10
1.32001518867e-10
1.47578077017e-11
1.39828833495e-12
1.12880799752e-13
7.81501774544e-15
4.66778945493e-16
2.41482914014e-17
9.707167067e-19
2.57161249721e-20
0.000533601454962
0.000912589991703
0.00049616244108
6.22369073536e-05
3.58497250863e-05
8.14833631278e-06
1.58094929952e-06
3.12809099333e-07
6.47207095013e-08
1.2523439511e-08
2.09395504555e-09
2.95454656446e-10
3.50856404593e-11
3.51526007466e-12
2.98237905139e-13
2.15312243659e-14
1.32804719067e-15
6.99955689705e-17
2.8070214148e-18
7.18838249221e-20
0.000550000846327
0.00083613788108
0.000599159876104
4.55699381158e-05
4.16621771498e-05
1.03853276286e-05
2.30829149583e-06
4.96807154867e-07
1.09593550592e-07
2.27555848488e-08
4.0928244178e-09
6.19130559726e-10
7.8424685351e-11
8.3334064606e-12
7.44966994662e-13
5.6235014137e-14
3.59332446102e-15
1.93726934272e-16
7.79552117187e-18
1.94923978612e-19
0.000557894107636
0.000767880097213
0.000602160955433
5.36066118947e-05
5.65328620536e-05
1.28918184564e-05
3.04306308804e-06
7.10794586162e-07
1.69267249707e-07
3.811420682e-08
7.442437407e-09
1.2157271694e-09
1.65102087715e-10
1.86751412046e-11
1.76436033246e-12
1.39658403752e-13
9.27494308554e-15
5.13572153752e-16
2.08553949025e-17
5.14363650495e-19
0.000560304434639
0.000711439116345
0.000584772321774
6.30062896353e-05
0.000105140223816
1.88681848662e-05
4.29264004045e-06
1.02981553458e-06
2.56248505123e-07
6.14323445488e-08
1.29162079886e-08
2.27216838462e-09
3.30719130981e-10
3.98489626838e-11
3.98401875024e-12
3.31307346522e-13
2.2928207638e-14
1.3086500846e-15
5.39142049438e-17
1.32442632354e-18
0.00056022127371
0.000668751688204
0.000564291732907
8.08694998924e-05
0.000219416505028
3.96879136691e-05
8.26994860908e-06
1.79271508178e-06
4.20569694453e-07
1.0110554106e-07
2.21841151993e-08
4.13636707284e-09
6.40040336879e-10
8.18237477844e-11
8.64348047043e-12
7.55214035739e-13
5.45424080349e-14
3.21773925339e-15
1.35109359614e-16
3.33589188239e-18
0.000559988948405
0.000639285386361
0.000554877373069
0.000150715168511
5.52334321911e-05
4.83251772246e-05
1.28905457857e-05
2.99776293862e-06
6.9503149337e-07
1.66720012433e-07
3.7699205196e-08
7.37671006448e-09
1.20523673277e-09
1.62776700809e-10
1.81253359131e-11
1.66270947527e-12
1.25401153311e-13
7.66257731866e-15
3.29198592508e-16
8.23658154625e-18
0.000560394231841
0.000618566999148
0.000551063610443
0.000236041063547
2.63776041744e-05
5.93979678193e-05
1.6644575184e-05
4.25102772873e-06
1.04141206743e-06
2.59206400051e-07
6.14151410367e-08
1.26986778348e-08
2.19607767031e-09
3.13484411384e-10
3.67935063737e-11
3.54446090696e-12
2.79426676308e-13
1.77189562636e-14
7.81631026625e-16
1.99658450337e-17
0.000560721363821
0.000600425372575
0.000537121644009
0.000273092543594
3.06172696711e-05
7.91360846396e-05
2.09758606669e-05
5.64687919615e-06
1.46447742149e-06
3.81903077033e-07
9.54710994459e-08
2.09765555942e-08
3.85551669286e-09
5.83205859308e-10
7.22685622548e-11
7.32085032953e-12
6.04207061713e-13
3.98457080459e-14
1.81093562201e-15
4.75499606645e-17
0.000560166460806
0.000582985393158
0.0005179029872
0.00028981605111
4.10342906156e-05
0.000125106392703
3.12323850933e-05
8.31508197255e-06
2.15185620211e-06
5.64319478572e-07
1.45557008337e-07
3.36620251416e-08
6.55567029817e-09
1.05033813863e-09
1.37490955291e-10
1.46622092298e-11
1.26885542636e-12
8.72094666901e-14
4.09686283873e-15
1.11264044728e-16
0.00055830521926
0.000566281733438
0.000498247487848
0.00029594232286
4.30914927839e-05
2.80381969003e-05
3.50877596389e-05
1.13042633129e-05
3.10652906748e-06
8.25069367327e-07
2.17644580971e-07
5.26048693048e-08
1.08189622498e-08
1.83394079531e-09
2.53617890614e-10
2.84956933673e-11
2.58939379507e-12
1.8585754839e-13
9.05199708213e-15
2.5569132144e-16
0.00055518750629
0.000551038339607
0.000481636567564
0.000301487759111
6.28550010064e-05
1.01725088689e-05
4.07093079467e-05
1.37504012908e-05
4.0756181088e-06
1.13113101026e-06
3.1005866145e-07
7.88537489856e-08
1.71959654232e-08
3.09289592514e-09
4.5284629339e-10
5.37074240841e-11
5.13420453149e-12
3.85668438297e-13
1.95303124702e-14
5.76643235999e-16
0.000551056968334
0.000537539824784
0.000468238548495
0.000306129635392
8.77865858671e-05
1.00663412088e-05
5.24360035034e-05
1.63615906252e-05
5.03354279218e-06
1.4631059319e-06
4.19918928711e-07
1.12933724313e-07
2.62283276776e-08
5.02523214693e-09
7.81489395797e-10
9.80891420168e-11
9.88710857886e-12
7.790312715e-13
4.11325053079e-14
1.27508141034e-15
0.000545995715257
0.000525311970054
0.000456501861159
0.000308660640691
0.000110677677103
1.37618057628e-05
7.69409175454e-05
2.07423318014e-05
6.29647148767e-06
1.87673115615e-06
5.56914559763e-07
1.57168331493e-07
3.87489851707e-08
7.90562912908e-09
1.30697882762e-09
1.73848886922e-10
1.85062366877e-11
1.53227567621e-12
8.4552365099e-14
2.76236761233e-15
0.000539892309923
0.000513651704762
0.000445219441309
0.000309124003532
0.000130783585616
2.54391050795e-05
0.000131359045329
3.17302332162e-05
8.87620489108e-06
2.55517729662e-06
7.52772730684e-07
2.17665725442e-07
5.62681131878e-08
1.21528427101e-08
2.13041142766e-09
3.00061776817e-10
3.37385093476e-11
2.93799873951e-12
1.6970953394e-13
5.86086062133e-15
0.00053260525168
0.000502078289084
0.000433941954041
0.000307179903608
0.00014250162461
2.52471031088e-05
2.67371946662e-05
3.27760923639e-05
1.13312987696e-05
3.43537929705e-06
1.01737581673e-06
2.9911189886e-07
8.04442894431e-08
1.83050436467e-08
3.39371374563e-09
5.0548489077e-10
6.00087055582e-11
5.49755346864e-12
3.32770501633e-13
1.21749544115e-14
0.000524033076254
0.000490298678789
0.000422544611029
0.00030334105272
0.0001484071704
3.03509028134e-05
7.86180622415e-06
3.59934975312e-05
1.3243607371e-05
4.31212305276e-06
1.32047646591e-06
3.99204063837e-07
1.11998096384e-07
2.68698123148e-08
5.27043501308e-09
8.30402875661e-10
1.04118174792e-10
1.00400112149e-11
6.37436577894e-13
2.47512111399e-14
0.000514061264531
0.000477960531212
0.000410580218734
0.000297374380115
0.00015036575861
3.64676023208e-05
6.08289005642e-06
4.5220634344e-05
1.54450990775e-05
5.23145852038e-06
1.65925121604e-06
5.17409792901e-07
1.51536283468e-07
3.83547238301e-08
7.96601908694e-09
1.3287884493e-09
1.76098281765e-10
1.78873588735e-11
1.19231248332e-12
4.9209140837e-14
0.000502581382816
0.000464742511945
0.000397660977904
0.000289232277437
0.000149696880385
4.01359315154e-05
7.96670283801e-06
6.5791428088e-05
1.96524552015e-05
6.54377138733e-06
2.09644392056e-06
6.64405714871e-07
2.01320868297e-07
5.35210415084e-08
1.17491615858e-08
2.07368473173e-09
2.90472755979e-10
3.1090683808e-11
2.17721344115e-12
9.56255748888e-14
0.000489531714184
0.000450445323005
0.000383653810422
0.000279264021282
0.000146965769909
4.25822407538e-05
5.22447400482e-06
1.17202525226e-05
1.92317565835e-05
7.71836723569e-06
2.60758163882e-06
8.43247397218e-07
2.630874971e-07
7.31710284557e-08
1.6941048331e-08
3.1603112396e-09
4.67680811476e-10
5.27449679203e-11
3.8816271488e-12
1.81586281301e-13
0.000474874056573
0.000434938282578
0.000368583913682
0.000268100984172
0.000143410332425
4.6172268823e-05
7.61217698988e-06
2.91306089161e-06
1.85672367591e-05
8.53469036495e-06
3.1062212728e-06
1.03929879246e-06
3.35074059804e-07
9.75357683931e-08
2.38217850366e-08
4.69826314415e-09
7.34717921877e-10
8.73300065868e-11
6.75637650264e-12
3.36916269317e-13
0.000458558822391
0.000418096676616
0.000352434911736
0.000255974818468
0.000139261078516
4.93476803817e-05
1.32484461688e-05
2.12681610435e-06
2.0195121129e-05
9.20124732677e-06
3.57011428246e-06
1.24192104631e-06
4.14787590123e-07
1.26454696924e-07
3.26055849101e-08
6.80493955815e-09
1.12542522725e-09
1.41070379158e-10
1.14799530508e-11
6.10753020889e-13
0.000440520227908
0.000399791696383
0.000335099665011
0.000242766054716
0.000134054320871
5.08572914395e-05
1.62444283265e-05
2.79111405354e-06
2.54919040559e-05
1.0129326662e-05
4.05780554834e-06
1.45916974038e-06
5.03080180872e-07
1.60194168437e-07
4.35556284898e-08
9.61768007426e-09
1.68251156956e-09
2.22471671221e-10
1.90500043742e-11
1.08213532242e-12
0.000420680323878
0.000379911268393
0.000316467257945
0.000228348058237
0.000127546438204
5.07655942524e-05
1.79202632096e-05
3.75114534307e-06
3.19648188282e-05
1.16195635349e-05
4.65991304886e-06
1.71091446197e-06
6.03714664883e-07
1.99582245953e-07
5.70387653912e-08
1.33059310537e-08
2.46050715334e-09
3.43072188417e-10
3.09109513511e-11
1.87581570669e-12
0.00039896230242
0.000358400519999
0.000296527515852
0.00021279877044
0.000119906339314
4.950117633e-05
1.86408490706e-05
2.36334893407e-06
5.23515302843e-06
1.07807571706e-05
5.12724954057e-06
1.97951126974e-06
7.15873236453e-07
2.44759556511e-07
7.33208991084e-08
1.80439335316e-08
3.5243591451e-09
5.17949415224e-10
4.90979685407e-11
3.18427629361e-12
0.000375297806181
0.000335255754245
0.000275351715971
0.000196333024022
0.00011148648275
4.75310643916e-05
1.89085224342e-05
1.97692234979e-06
1.17179915506e-06
9.94444575729e-06
5.41028805582e-06
2.2346472779e-06
8.33264732995e-07
2.94448824909e-07
9.23359876454e-08
2.39584517998e-08
4.94221176793e-09
7.65524869947e-10
7.63546117538e-11
5.29542144446e-12
0.000349630344151
0.000310472573269
0.000252978192642
0.000179077419018
0.000102434536111
4.49346328434e-05
1.8715627421e-05
1.93551189456e-06
6.8382063028e-07
9.92126834207e-06
5.58083855961e-06
2.46675992684e-06
9.51407030046e-07
3.4719796762e-07
1.13827761866e-07
3.11256743341e-08
6.78139277064e-09
1.10728923904e-09
1.16241462523e-10
8.6272543492e-12
0.000321957711751
0.00028407957855
0.000229473064519
0.000161176565423
9.28722837539e-05
4.1789589701e-05
1.81418014983e-05
1.94269844358e-06
7.49566592072e-07
1.06422760302e-05
5.71945394875e-06
2.68352627282e-06
1.07059953697e-06
4.02521347139e-07
1.37634439372e-07
3.96169272829e-08
9.11296674988e-09
1.56843591805e-09
1.73325556976e-10
1.37761922239e-11
0.000292374125977
0.000256198608381
0.000205019753048
0.00014289347695
8.29846732083e-05
3.82379703708e-05
1.73752750082e-05
2.18269907933e-06
8.19548380818e-07
9.81227578697e-06
5.74007453134e-06
2.88586789573e-06
1.19269839983e-06
4.60584234356e-07
1.63699931287e-07
4.95102893631e-08
1.20142977079e-08
2.17865873802e-09
2.53439944722e-10
2.15837520257e-11
0.000261105385559
0.000227103166343
0.000179980161645
0.000124630239098
7.30202959388e-05
3.44738562313e-05
1.66873718251e-05
4.23795502802e-06
5.96591685176e-07
2.78176535973e-06
5.20761310387e-06
3.02652625687e-06
1.31377364331e-06
5.20818776184e-07
1.91789568494e-07
6.08295917161e-08
1.5557699276e-08
2.97104791446e-09
3.63807883903e-10
3.32123685916e-11
0.000228555287323
0.000197269723687
0.000154909815426
0.000106865464185
6.32280487648e-05
3.06367517888e-05
1.5948642328e-05
6.12987178663e-06
5.83876096726e-07
5.36012396814e-07
4.56533605968e-06
3.08387495169e-06
1.42635324792e-06
5.81483810741e-07
2.21295287962e-07
7.34738406727e-08
1.97906194412e-08
3.97870050764e-09
5.12871506799e-10
5.02141103922e-11
0.000195379455139
0.00016741651193
0.00013051521804
9.00452452348e-05
5.38197643207e-05
2.68585838687e-05
1.51029684091e-05
7.16544972691e-06
6.70320097009e-07
2.48127875856e-07
4.0913640161e-06
3.06510936845e-06
1.52528309849e-06
6.40875289223e-07
2.51474116417e-07
8.72391175309e-08
2.4728770892e-08
5.23192539628e-09
7.10028805603e-10
7.45962717008e-11
0.000162575852661
0.000138517652732
0.000107572610389
7.45180882905e-05
4.49889631574e-05
2.32818343187e-05
1.4166358084e-05
7.63634319756e-06
7.46792309203e-07
2.36673493779e-07
3.81016019389e-06
2.96703446764e-06
1.60716876083e-06
6.98124652889e-07
2.81772516322e-07
1.01900932198e-07
3.03667994383e-08
6.75828648132e-09
9.65626462909e-10
1.08909519609e-10
0.0001314661607
0.000111687101765
8.6767625637e-05
6.0500882009e-05
3.69058760253e-05
2.00163119657e-05
1.325036672e-05
7.73401237469e-06
7.91743971341e-07
2.49632790092e-07
3.48498764157e-06
2.79911988334e-06
1.66846841686e-06
7.52869683314e-07
3.11858072729e-07
1.17246863819e-07
3.6685256934e-08
8.58300945623e-09
1.29106275111e-09
1.56354205195e-10
0.000103404702598
8.78712269238e-05
6.85083314571e-05
4.80948587979e-05
2.97206388233e-05
1.71439388346e-05
1.23676339193e-05
7.53644884335e-06
8.00714239742e-07
2.24542975495e-07
2.56298560645e-06
2.53967365666e-06
1.70058413432e-06
8.04245842431e-07
3.41429316057e-07
1.33042914692e-07
4.36413318066e-08
1.07262389128e-08
1.69842561294e-09
2.2084015831e-10
7.92771417815e-05
6.75184992032e-05
5.28659017559e-05
3.7343262831e-05
2.35569038377e-05
1.47167108235e-05
1.15161873059e-05
7.06603415545e-06
7.72210068605e-07
1.45680366462e-07
1.14032401916e-06
2.18464593663e-06
1.69023066086e-06
8.50233350991e-07
3.7006600972e-07
1.49001465277e-07
5.11551350975e-08
1.31979097243e-08
2.1994655017e-09
3.06931267072e-10
5.92184528407e-05
5.05470319639e-05
3.97148504522e-05
2.82854311428e-05
1.84924948761e-05
1.27471938038e-05
1.06758478918e-05
6.29232408066e-06
7.07338327504e-07
9.02682181586e-08
4.0825884981e-07
1.84074509631e-06
1.62982124869e-06
8.8817754232e-07
3.97303396047e-07
1.64810749083e-07
5.91100176055e-08
1.59942871872e-08
2.80438856848e-09
4.19676494811e-10
4.28735460501e-05
3.66589386184e-05
2.89352337219e-05
2.09655361963e-05
1.45431739989e-05
1.12043548199e-05
9.79225876734e-06
5.054116956e-06
5.8915502843e-07
7.01452161742e-08
1.96464457969e-07
1.57939575844e-06
1.52324975814e-06
9.15307157541e-07
4.22754266049e-07
1.80191232444e-07
6.73645794436e-08
1.90973366706e-08
3.52086108887e-09
5.64368062397e-10
2.98774159121e-05
2.56444247547e-05
2.04830741437e-05
1.53894604498e-05
1.16554570184e-05
1.00188220035e-05
8.75377276474e-06
2.9552785441e-06
3.70384427963e-07
5.35556967592e-08
1.46688732583e-07
1.38972304143e-06
1.38496634667e-06
9.28948105352e-07
4.46102613752e-07
1.94919008531e-07
7.57600343128e-08
2.24737687506e-08
4.3529797705e-09
7.46265665332e-10
2.00292472003e-05
1.73922047824e-05
1.42950784537e-05
1.1465595261e-05
9.71274961576e-06
9.14592621301e-06
7.7728854233e-06
1.5057024144e-06
2.13615146005e-07
4.1657278185e-08
1.36638789316e-07
1.2287969716e-06
1.23533709897e-06
9.26869034149e-07
4.67117577535e-07
2.08847184018e-07
8.41270304593e-08
2.6073510793e-08
5.30011642159e-09
9.70319091399e-10
1.31292539499e-05
1.17158463713e-05
1.01725433978e-05
8.97713450757e-06
8.53656834743e-06
8.52782512481e-06
7.05529432729e-06
1.27133023479e-06
1.87264976331e-07
4.12474414459e-08
1.32277521429e-07
1.05535510611e-06
1.09016001089e-06
9.0722541347e-07
4.85558761841e-07
2.2191275401e-07
9.22922215534e-08
2.98283401599e-08
6.35609083847e-09
1.24107033831e-09
8.79078347123e-06
8.23354354367e-06
7.74482268972e-06
7.59260020179e-06
7.87507670315e-06
8.00171392019e-06
6.39844557732e-06
1.21435461342e-06
1.93383137622e-07
4.47521225809e-08
1.23310345332e-07
8.59678171592e-07
9.56544473446e-07
8.6849805551e-07
5.00696523758e-07
2.34035567159e-07
1.00060385251e-07
3.36449488861e-08
7.50783809182e-09
1.56267469156e-09
6.43037796895e-06
6.40121092464e-06
6.53117591136e-06
6.92224761186e-06
7.44347301828e-06
7.36130394329e-06
5.44117348309e-06
1.1129857456e-06
1.94989949166e-07
4.73217183772e-08
1.09054113959e-07
6.64211391692e-07
8.35880522398e-07
8.11564582355e-07
5.11107000966e-07
2.45064900397e-07
1.0721116028e-07
3.74011990228e-08
8.73508417833e-09
1.93922438802e-09
5.39366898374e-06
5.63202033695e-06
6.03707448015e-06
6.57694476146e-06
6.94278981857e-06
6.30600743939e-06
3.39605613785e-06
7.81916553993e-07
1.55921927964e-07
4.33276742757e-08
9.22764899444e-08
4.96444384072e-07
7.25570260353e-07
7.40053840475e-07
5.14766540008e-07
2.54801080915e-07
1.13525896672e-07
4.09537651511e-08
1.00125271161e-08
2.3751797455e-09
5.09897185366e-06
5.42105538979e-06
5.86179936051e-06
6.28827403179e-06
6.29273791882e-06
5.11406188347e-06
1.62041069236e-06
4.28291044328e-07
9.93552665864e-08
3.4683007814e-08
7.68116512461e-08
3.72746952485e-07
6.25252740743e-07
6.60291021185e-07
5.09417704041e-07
2.62941470483e-07
1.18798734025e-07
4.41467543012e-08
1.13127991828e-08
2.87546888072e-09
5.09909264321e-06
5.38264350747e-06
5.70310362213e-06
5.86264029679e-06
5.43851175222e-06
3.76342166913e-06
1.11983180215e-06
2.97348977237e-07
7.31711744563e-08
2.93624050889e-08
6.52645958569e-08
2.89421837085e-07
5.36861092725e-07
5.80760265704e-07
4.93682243171e-07
2.69117936182e-07
1.22868241094e-07
4.68241167949e-08
1.26084080214e-08
3.44445661087e-09
5.07041982349e-06
5.22499875249e-06
5.30494235968e-06
5.06338997408e-06
4.04352881177e-06
1.63655518955e-06
5.63498075995e-07
1.69001605279e-07
4.77845073548e-08
2.42882056759e-08
5.69874949791e-08
2.33963052902e-07
4.59969684296e-07
5.06858933448e-07
4.67750119418e-07
2.72983773489e-07
1.25666485693e-07
4.88486310913e-08
1.38725278723e-08
4.08322970409e-09
4.78314284367e-06
4.72982520484e-06
4.45650037814e-06
3.65426646026e-06
1.8705929287e-06
7.6602563849e-07
2.79788031202e-07
9.13973917262e-08
2.99037908118e-08
2.02509980116e-08
5.09270283398e-08
1.95116895568e-07
3.93050720677e-07
4.40890732865e-07
4.32829841743e-07
2.74096200206e-07
1.27214024176e-07
5.00955999628e-08
1.50682699351e-08
4.78612032253e-09
3.99016998569e-06
3.62749114423e-06
2.87509796466e-06
1.5673290812e-06
7.65806084647e-07
3.35446442127e-07
1.31773136915e-07
4.73162255081e-08
1.84692708954e-08
1.68268523128e-08
4.45667096443e-08
1.61179187212e-07
3.3374413164e-07
3.82042315765e-07
3.91452274614e-07
2.71754645655e-07
1.27105825945e-07
5.0354071009e-08
1.61191985802e-08
5.52942214629e-09
3.45862058101e-26
6.68888014153e-26
4.42079003891e-26
7.60719446593e-26
1.23129170023e-25
1.4835435995e-25
4.6535073386e-25
4.06738675381e-25
1.68362637548e-24
1.0809554761e-24
5.65350833275e-24
2.87825869364e-24
1.78870793159e-23
7.64458365091e-24
5.39835964247e-23
2.01907916828e-23
1.56871192091e-22
5.29956493371e-23
4.42463619206e-22
1.38371328139e-22
1.21906299498e-21
3.59836613786e-22
3.29540592621e-21
9.32608187169e-22
8.76546746309e-21
2.40907612292e-21
2.29840246437e-20
6.20057825021e-21
5.94820534626e-20
1.58948745391e-20
1.52067223369e-19
4.05643101646e-20
3.84323953896e-19
1.03028055493e-19
9.60784091313e-19
2.60360445928e-19
2.37636214228e-18
6.54388629778e-19
5.812376595e-18
1.63515154591e-18
1.40466260065e-17
4.05462757531e-18
3.35004245836e-17
9.95322174649e-18
7.87292642364e-17
2.41394993843e-17
1.82030213652e-16
5.77315642468e-17
4.13455782771e-16
1.3591589703e-16
9.21239156697e-16
3.14644396672e-16
2.01173821091e-15
7.1473422842e-16
4.30136721281e-15
1.59054217127e-15
8.9960917806e-15
3.46283728329e-15
1.83897933551e-14
7.36785470751e-15
3.67275919465e-14
1.53100240789e-14
7.1650931896e-14
3.10585769868e-14
1.36539025219e-13
6.15047414972e-14
2.54240912098e-13
1.18919160844e-13
4.62949742884e-13
2.24636658848e-13
8.2509282372e-13
4.14891982865e-13
1.44001763242e-12
7.49663061262e-13
2.46161826529e-12
1.325624213e-12
4.12337817802e-12
2.29498751517e-12
6.7738042063e-12
3.89266341789e-12
1.09226728674e-11
6.47360228029e-12
1.72954744741e-11
1.056052899e-11
2.68958690563e-11
1.69020200934e-11
4.10813211955e-11
2.65425334884e-11
6.16511056714e-11
4.09038251028e-11
9.09266230051e-11
6.18674359124e-11
1.31792350131e-10
9.18373825917e-11
1.8768228364e-10
1.33767557077e-10
2.6251780827e-10
1.91152274904e-10
3.60626726604e-10
2.6800384833e-10
4.86660584982e-10
3.68826117527e-10
6.45589892118e-10
4.98629993213e-10
8.42729182296e-10
6.62933640057e-10
1.08387666136e-09
8.67823673612e-10
1.37522599196e-09
1.11967837193e-09
1.72239475914e-09
1.42375077311e-09
2.12928759863e-09
1.78313392121e-09
2.59489388375e-09
2.19518636124e-09
3.10990923263e-09
2.64626097787e-09
3.70586224046e-09
3.20421852204e-09
)
;

boundaryField
{
    inletfuel
    {
        type            fixedValue;
        value           uniform 0;
    }
    inletair
    {
        type            fixedValue;