/*--------------------------------*- C++ -*----------------------------------*\
  =========                 |
  \\      /  F ield         | OpenFOAM: The Open Source CFD Toolbox
   \\    /   O peration     | Website:  https://openfoam.org
    \\  /    A nd           | Version:  dev
     \\/     M anipulation  |
\*---------------------------------------------------------------------------*/
FoamFile
{
    version     2.0;
    format      ascii;
    class       volScalarField;
    location    "0.3";
    object      CH3;
}
// * * * * * * * * * * * * * * * * * * * * * * * * * * * * * * * * * * * * * //

dimensions      [0 0 0 0 0 0 0];

internalField   nonuniform List<scalar> 
1629
(
1.09653550676e-19
1.04007878075e-19
8.42115810197e-20
1.50736471419e-17
2.04869093659e-17
3.50384608687e-17
1.12577686441e-15
2.34114505445e-15
8.38472847286e-15
6.30884672162e-14
1.95727472477e-13
1.33226333212e-12
2.54258318472e-12
8.33645775171e-12
4.6449562562e-11
9.99068610317e-11
3.56839964916e-10
1.79666690079e-09
3.06201555704e-09
1.11622436175e-08
5.03649706934e-08
5.63316589829e-08
1.98262342792e-07
8.3124688019e-07
1.7934145374e-07
4.5546544541e-07
1.28729236398e-06
3.47693240133e-07
6.67094698077e-07
1.37843130448e-06
5.12443249855e-07
7.88245464922e-07
1.28064783727e-06
6.43775625354e-07
8.54920651231e-07
1.22092668614e-06
7.48491719458e-07
9.26020712734e-07
1.30094117559e-06
8.28878023835e-07
9.90029729561e-07
1.37359302639e-06
8.92264275102e-07
1.05266244536e-06
1.46899933487e-06
9.34476730425e-07
1.09299551486e-06
1.5092215957e-06
9.5040369294e-07
1.10059564406e-06
1.48847711059e-06
9.39238358185e-07
1.07544586717e-06
1.41956102235e-06
9.08118123128e-07
1.02965266688e-06
1.33136042314e-06
8.72398323989e-07
9.85002271461e-07
1.26390991244e-06
8.51383739332e-07
9.65153989051e-07
1.25115973158e-06
8.54600702631e-07
9.75386622732e-07
1.2800168907e-06
8.75285301466e-07
1.00046217846e-06
1.3116598063e-06
9.02209134579e-07
1.02631389064e-06
1.32918421446e-06
9.30499028454e-07
1.05051393145e-06
1.33946077155e-06
9.64446013472e-07
1.0812713658e-06
1.36071698957e-06
1.01429053213e-06
1.1313187056e-06
1.41071027901e-06
1.08888788064e-06
1.20927392556e-06
1.49561283085e-06
1.19192031379e-06
1.31675945055e-06
1.61167430682e-06
1.32108334081e-06
1.4494457642e-06
1.75046601068e-06
1.46969651566e-06
1.59968858488e-06
1.90289283315e-06
1.63085199868e-06
1.76134513785e-06
2.06495129993e-06
1.80078936501e-06
1.93252217787e-06
2.23915279667e-06
1.98267547951e-06
2.11817226466e-06
2.43414750276e-06
2.1853427361e-06
2.32781336578e-06
2.66092860681e-06
2.42838734297e-06
2.58218103408e-06
2.94198166679e-06
2.74632387766e-06
2.91674952734e-06
3.31506680254e-06
3.18781761314e-06
3.38118220513e-06
3.83185660358e-06
3.81057044514e-06
4.03334473073e-06
4.55081157399e-06
4.67532988949e-06
4.9341790786e-06
5.5333147965e-06
5.85162016091e-06
6.15459314029e-06
6.85355655555e-06
7.44099694204e-06
7.79976669029e-06
8.62589516527e-06
9.61683637523e-06
1.00493492941e-05
1.10436317956e-05
1.26665520721e-05
1.31981815234e-05
1.44178594726e-05
1.70320765666e-05
1.76959692518e-05
1.92149103557e-05
2.3342924242e-05
2.41784290776e-05
2.60829035688e-05
3.24117893703e-05
3.34587856919e-05
3.58340964151e-05
4.51384365876e-05
4.64258227518e-05
4.93302855607e-05
6.22625952326e-05
6.3791100415e-05
6.72186814806e-05
8.39415036326e-05
8.56670533673e-05
8.95128700899e-05
0.000109255642862
0.000111084170609
0.000115136057023
0.000135937410257
0.0001377418714
0.000141720387648
0.000160732380639
0.000162392474964
0.000166038300584
0.00018054706805
0.000181990929198
0.000185153246631
0.000193767701094
0.00019498287249
0.000197639064656
0.000200590779524
0.00020159613091
0.000203788779735
0.000202035340025
0.000202843342124
0.000204598674095
0.000198624086167
0.000199221541336
0.00020050952615
0.000189792230445
0.000190147117873
0.000190897680195
0.000174149043576
0.000174233106026
0.000174386819148
0.000150541222855
0.0001503553744
0.000149918443704
0.000119531223147
0.000119118311479
0.000118188533896
8.32504596399e-05
8.26596817772e-05
8.13466355175e-05
7.22420254449e-12
1.8522555646e-10
6.0809163661e-09
1.57975846674e-07
2.63021817758e-06
2.86427492175e-06
2.3451425967e-06
1.78602541764e-06
1.69990367361e-06
2.0130646974e-06
2.13365566227e-06
2.34800597916e-06
2.35585410353e-06
2.23560786875e-06
2.04890038501e-06
1.86604128853e-06
1.76032343455e-06
1.77377632208e-06
1.83571686476e-06
1.86251189762e-06
1.8478906122e-06
1.82292299754e-06
1.82285431974e-06
1.87012449549e-06
1.96270549302e-06
2.08694467783e-06
2.22980259249e-06
2.3814838137e-06
2.54235792498e-06
2.72188599531e-06
2.93324671992e-06
3.18834328657e-06
3.51146218111e-06
3.94369554217e-06
4.53917681742e-06
5.35759192566e-06
6.46129038472e-06
7.93086304484e-06
9.89479198916e-06
1.25659377849e-05
1.62779305622e-05
2.15190928481e-05
2.89516629414e-05
3.93808503907e-05
5.36230755551e-05
7.22292754667e-05
9.50732180288e-05
0.00012093408452
0.000147362488766
0.000171172414995
0.000189584763375
0.000201347804063
0.000206837191741
0.000207021016129
0.000202260642957
0.000191880032639
0.000174523645421
0.000149229463302
0.000116820834659
7.94583100469e-05
4.76112542762e-17
2.19372748456e-16
4.70016043624e-16
5.49499201938e-16
3.66328662399e-16
1.61521275876e-16
5.17748049828e-17
1.27566212679e-17
2.52538576536e-18
4.11634388654e-19
5.58642646823e-20
6.35828408193e-21
6.10357697957e-22
4.9687459613e-23
3.45257565366e-24
2.06562060161e-25
1.07804405165e-26
4.98701044857e-28
2.08375380824e-29
4.72570025648e-31
1.47742351046e-15
4.56316807661e-15
1.02553978628e-14
1.20264003955e-14
7.09390255064e-15
2.67373462785e-15
7.29355562126e-16
1.54227103822e-16
2.66765604809e-17
3.85362876265e-18
4.69273709438e-19
4.84983773962e-20
4.27827930519e-21
3.24061154285e-22
2.12324702804e-23
1.21570449081e-24
6.18134950308e-26
2.84627037814e-27
1.18457934951e-28
2.70602068683e-30
7.52354152221e-14
6.6792060479e-14
1.36757342747e-13
1.54732496255e-13
7.98185302943e-14
2.59328049598e-14
6.14457262264e-15
1.14967517098e-15
1.79235616936e-16
2.35800980992e-17
2.63959405477e-18
2.53037292761e-19
2.08920698919e-20
1.49497748212e-21
9.3470765098e-23
5.16715418254e-24
2.5730448871e-25
1.18641059194e-26
4.9745283591e-28
1.07810786261e-29
4.30976536946e-12
1.40446593514e-12
1.71002788623e-12
1.59454028873e-12
7.11107803346e-13
2.0509317632e-13
4.39233988223e-14
7.60890231348e-15
1.10974847763e-15
1.37694017804e-16
1.46434930681e-17
1.34253116396e-18
1.06672971938e-19
7.39059926342e-21
4.50264229772e-22
2.44357879281e-23
1.20611625472e-24
5.59591185128e-26
2.41356369477e-27
6.24691003341e-29
2.75955399141e-10
8.36803726454e-11
3.15964826926e-11
1.81259453918e-11
6.3754208837e-12
1.58617730437e-12
3.04809720279e-13
4.88209854308e-14
6.65795677289e-15
7.81805517317e-16
7.95429844281e-17
7.04146410664e-18
5.44448507142e-19
3.69544450756e-20
2.2192551276e-21
1.19465878771e-22
5.89189356357e-24
2.76154395318e-25
1.22874243007e-26
3.98225354891e-28
1.44668543735e-08
9.44725488173e-09
8.89272143722e-10
2.27591165764e-10
5.51370917006e-11
1.13938114251e-11
1.96050607201e-12
2.8769064845e-13
3.66783616606e-14
4.0957944277e-15
4.01726750479e-16
3.46487285781e-17
2.63185794516e-18
1.76646422738e-19
1.05473357509e-20
5.67316049259e-22
2.80970362181e-23
1.3309416111e-24
6.02812441634e-26
2.20616632223e-27
4.63011969901e-07
2.87208895464e-07
3.18441902439e-08
3.82256904273e-09
4.70610591473e-10
7.01861865795e-11
1.05217022809e-11
1.4307811304e-12
1.73857764311e-13
1.88332934588e-14
1.81359766874e-15
1.54865370923e-16
1.17159988989e-17
7.8664621585e-19
4.71432491561e-20
2.55177319362e-21
1.27421617784e-22
6.09076052882e-24
2.76384528918e-25
1.0630280597e-26
7.96907161855e-06
7.68629488152e-07
2.92095434614e-07
1.80882726687e-08
1.89904807963e-09
2.50596599028e-10
3.71366508839e-11
5.188427185e-12
6.47013655701e-13
7.1626003769e-14
7.0301365175e-15
6.10947221983e-16
4.6996860108e-17
3.20663347402e-18
1.95171515019e-19
1.07197876906e-20
5.42077386412e-22
2.61175408246e-23
1.17443921845e-24
4.51512322934e-26
7.1463431062e-06
6.6461148434e-05
7.64044739724e-07
2.45410473579e-08
2.86556129812e-09
4.6266761467e-10
8.06550157595e-11
1.30316250556e-11
1.8204784196e-12
2.19313304732e-13
2.29471573906e-14
2.0964226111e-15
1.67926111e-16
1.18505732452e-17
7.42109200951e-19
4.17356296265e-20
2.14807501059e-21
1.04355092916e-22
4.62403858015e-24
1.72136201508e-25
4.41311809012e-06
2.52398385803e-05
4.95216484005e-07
1.54334543021e-08
2.8419919886e-09
6.26968471829e-10
1.34359900208e-10
2.58018107138e-11
4.16179893514e-12
5.62017295974e-13
6.43544373069e-14
6.31872072659e-15
5.36638736035e-16
3.97379800534e-17
2.58907860208e-18
1.50306926097e-19
7.9132843672e-21
3.88219340499e-22
1.69222343285e-23
6.00018521367e-25
2.59009668458e-06
7.1982676484e-06
6.18484614839e-07
2.32299218443e-08
3.6715235981e-09
8.89442814564e-10
2.13963450494e-10
4.66134342337e-11
8.51545592768e-12
1.28347928148e-12
1.61381485927e-13
1.7150485974e-14
1.557326614e-15
1.22009899588e-16
8.33153970757e-18
5.02228744914e-19
2.71573736518e-20
1.34813960799e-21
5.78488738679e-23
1.94078070135e-24
3.31375335863e-06
2.20282868878e-05
9.39082364675e-07
1.28841675683e-07
1.31804428596e-08
2.03670812053e-09
4.05525870479e-10
8.67416558697e-11
1.68244383769e-11
2.74978301602e-12
3.75056181807e-13
4.2981243191e-14
4.1759348081e-15
3.47145552975e-16
2.49346180627e-17
1.56614720758e-18
8.72331589373e-20
4.39069790306e-21
1.85841669658e-22
5.89388892906e-24
4.78208993756e-06
2.96456571624e-05
6.73899912822e-06
2.915763232e-07
1.95339376469e-08
3.09433496016e-09
6.6034075164e-10
1.49543257335e-10
3.12369764085e-11
5.53777164032e-12
8.17345904747e-13
1.00824629691e-13
1.047723124e-14
9.24937907751e-16
6.99932772905e-17
4.58943276659e-18
2.63829018253e-19
1.34901569549e-20
5.64762354934e-22
1.69781137473e-23
4.88552631337e-06
2.91456382214e-05
0.000402472974586
3.82521176345e-06
7.50755767257e-08
5.91059433595e-09
1.11091785901e-09
2.5334444377e-10
5.59402377166e-11
1.06618526148e-11
1.69430711768e-12
2.24251763675e-13
2.48781832104e-14
2.33065187384e-15
1.85833813155e-16
1.27292808252e-17
7.56162160019e-19
3.93485504114e-20
1.63456394103e-21
4.68234745298e-23
5.83485444053e-06
4.71044455325e-05
0.00135276888531
1.4594301011e-05
3.08440563659e-07
1.63662406031e-08
2.36183682489e-09
4.79938745141e-10
1.04010548297e-10
2.04826517333e-11
3.43064261421e-12
4.81467958844e-13
5.66456333164e-14
5.61101278821e-15
4.7057048871e-16
3.36550002544e-17
2.06697235564e-18
1.09637371432e-19
4.53476822159e-21
1.24634371449e-22
5.44615497248e-06
3.3557970843e-05
0.000571184359355
2.13300918599e-05
5.94182810993e-07
4.37102858679e-08
5.56500984496e-09
9.85258301199e-10
2.00534918688e-10
3.95282550395e-11
6.84215678376e-12
1.00596336334e-12
1.24589524678e-13
1.29915737633e-14
1.14323780661e-15
8.52864993684e-17
5.41705839316e-18
2.9335647655e-19
1.21263386225e-20
3.22314667873e-22
4.73123049973e-06
2.2013259357e-05
0.000203192156003
1.56288605062e-05
3.93161256241e-07
3.76358609307e-08
6.66727338916e-09
1.44601145854e-09
3.27352609675e-10
6.95552800963e-11
1.28422671319e-11
2.00355926534e-12
2.6246715967e-13
2.88568505196e-14
2.66605532556e-15
2.07579079954e-16
1.36514312289e-17
7.5645419621e-19
3.13825548905e-20
8.13787243737e-22
4.01762658916e-06
1.55009951563e-05
9.94169008016e-05
6.91572119463e-05
8.10034952737e-07
2.79528267237e-08
5.43868331814e-09
1.62984647062e-09
4.4710390353e-10
1.0803782006e-10
2.20406295457e-11
3.72882799263e-12
5.2319555481e-13
6.10822716703e-14
5.94981290703e-15
4.84893967468e-16
3.31067846655e-17
1.88318367363e-18
7.87951084588e-20
2.01228914456e-21
3.4881908724e-06
1.22790390091e-05
6.96407385079e-05
0.00041134242654
4.93660488329e-06
8.04862130161e-08
5.28202305075e-09
1.67617952473e-09
5.50351416265e-10
1.52921232194e-10
3.49263319789e-11
6.48666328696e-12
9.84243870884e-13
1.22872448731e-13
1.26823594812e-14
1.08613673695e-15
7.72683758973e-17
4.52969721121e-18
1.92187105202e-19
4.88137508386e-21
3.2862756661e-06
1.17659593051e-05
7.1053561226e-05
0.000868493682275
1.28832360384e-05
2.7750201495e-07
1.24988678678e-08
2.1508849696e-09
6.91402026054e-10
2.09901831439e-10
5.28171067219e-11
1.07252981306e-11
1.76152699774e-12
2.35746706447e-13
2.58616356425e-14
2.33485913208e-15
1.736694732e-16
1.05348469498e-17
4.55722200687e-19
1.16243417651e-20
3.43180795391e-06
1.30864103458e-05
8.67958374201e-05
0.00133820169911
5.67053622605e-05
1.41571099925e-06
6.44906912496e-08
6.43511861326e-09
1.23372661578e-09
3.19438190117e-10
8.07831745632e-11
1.73355533778e-11
3.04258760966e-12
4.34706456205e-13
5.06630821539e-14
4.82869853244e-15
3.76480287276e-16
2.37145957993e-17
1.05126958768e-18
2.71791909833e-20
3.57368877263e-06
1.30231430965e-05
7.59652729801e-05
0.000925940621901
6.544783242e-05
1.30898642341e-06
5.1665459416e-08
6.35880000957e-09
1.53005095217e-09
4.35498536695e-10
1.17441646198e-10
2.69355521007e-11
5.05655065591e-12
7.71046991615e-13
9.55061672683e-14
9.62220861735e-15
7.88134930403e-16
5.17151157617e-17
2.36031650986e-18
6.23799976988e-20
3.51330238706e-06
1.14575262573e-05
5.45005072448e-05
0.000477664969016
9.07029744574e-05
1.43839857054e-06
3.6984326885e-08
3.95943827738e-09
1.40464023209e-09
5.05100106111e-10
1.55677401165e-10
3.93269393825e-11
8.00226092985e-12
1.31001783145e-12
1.73020522368e-13
1.84734634834e-14
1.59381104604e-15
1.09289955818e-16
5.15825595336e-18
1.40449430222e-19
3.34152734556e-06
9.78916015935e-06
3.9402187362e-05
0.00026693140106
0.000264202555754
4.56918516492e-06
1.03558137451e-07
4.92980499161e-09
1.25127388387e-09
5.33426437463e-10
1.90922484614e-10
5.39830686478e-11
1.20321148504e-11
2.12804045854e-12
3.00908320344e-13
3.41554124203e-14
3.11313942391e-15
2.23809095808e-16
1.09697399141e-17
3.09910981245e-19
3.17768127566e-06
8.60229294752e-06
3.1171819137e-05
0.000180661567609
0.000513840417944
2.00931904106e-05
5.14536754722e-07
2.40704740869e-08
2.54983226865e-09
6.76860131948e-10
2.35832940903e-10
7.16487466241e-11
1.7343525027e-11
3.31524965972e-12
5.02922662982e-13
6.08387660902e-14
5.87416924241e-15
4.44106031649e-16
2.26929816279e-17
6.69436240168e-19
3.09955619676e-06
8.0216965315e-06
2.78530489427e-05
0.000153011215287
0.000943256503946
5.58520268837e-05
1.14365748366e-06
4.31460454457e-08
3.98168602913e-09
8.70795604052e-10
2.89886780235e-10
9.25306913609e-11
2.41000764019e-11
4.96790370894e-12
8.09069000737e-13
1.0449505589e-13
1.07123976898e-14
8.54019492456e-16
4.56533171885e-17
1.41410310199e-18
3.12859402037e-06
7.89176346793e-06
2.68646265373e-05
0.000142041963868
0.00105403950628
8.10605585808e-05
1.53209779101e-06
4.25409833761e-08
3.54350798354e-09
8.94085357859e-10
3.28216637911e-10
1.13787192252e-10
3.21681535319e-11
7.16366496797e-12
1.2542656359e-12
1.73247268453e-13
1.88951999786e-14
1.59219482953e-15
8.93133788744e-17
2.91872744137e-18
3.22799122123e-06
7.921429245e-06
2.61550234566e-05
0.000129975133892
0.000940912459301
8.11738829254e-05
1.71123403949e-06
3.87296413525e-08
2.42181216128e-09
7.48730483834e-10
3.34929659922e-10
1.31690800193e-10
4.10801140026e-11
9.94469281681e-12
1.87665384019e-12
2.77700093073e-13
3.22753838537e-14
2.88009508011e-15
1.69955097277e-16
5.88326227836e-18
3.35716965509e-06
7.96715823493e-06
2.53296893582e-05
0.000117606041005
0.000786801870538
0.00015464351823
4.1904890732e-06
9.28761725321e-08
3.57693220068e-09
6.61458279175e-10
3.20585201522e-10
1.440921756e-10
5.01472494167e-11
1.3301186066e-11
2.71460453848e-12
4.31096964755e-13
5.34642602193e-14
5.0597448348e-15
3.14726293277e-16
1.15781007271e-17
3.49523673472e-06
8.00831920636e-06
2.44620090673e-05
0.000105889006728
0.000641965667845
0.000294910966824
1.35508011125e-05
3.31573879736e-07
1.39380403051e-08
1.28500502675e-09
3.62084302695e-10
1.57824869849e-10
5.94310270269e-11
1.72073142365e-11
3.80212157601e-12
6.4884277477e-13
8.59682002752e-14
8.63933857949e-15
5.67392137599e-16
2.22407742532e-17
3.63454964917e-06
8.04989374452e-06
2.35926066589e-05
9.50409539379e-05
0.000519773310511
0.000508710886645
3.2528102006e-05
6.95741293983e-07
2.51784033551e-08
2.07067125353e-09
4.36770916476e-10
1.7437843899e-10
6.89297577683e-11
2.1576840709e-11
5.15897598126e-12
9.4695503166e-13
1.34203544499e-13
1.43397833366e-14
9.95875635162e-16
4.16858154561e-17
3.78871068872e-06
8.15794334065e-06
2.30253332539e-05
8.69497570322e-05
0.000433979047178
0.000704703397126
5.50190383698e-05
1.17610991185e-06
3.23156461128e-08
2.22970972093e-09
4.60753366847e-10
1.85538419718e-10
7.76872869579e-11
2.62246391849e-11
6.78586214161e-12
1.34063180681e-12
2.03429211304e-13
2.31384094629e-14
1.70155081478e-15
7.61995324182e-17
3.9836020774e-06
8.40643296446e-06
2.29876852204e-05
8.22056489435e-05
0.000379391193467
0.000790155009984
6.7930165431e-05
1.8841069804e-06
4.59607869457e-08
2.31240393815e-09
4.43648149379e-10
1.87096599616e-10
8.45459525006e-11
3.09694843041e-11
8.67198844294e-12
1.84408383435e-12
2.99718477644e-13
3.63140944083e-14
2.83048967392e-15
1.35810454829e-16
4.24095175653e-06
8.8209545604e-06
2.34422817778e-05
7.99599525744e-05
0.000344381156062
0.000812824660692
7.31482043202e-05
2.8818050723e-06
7.88121364098e-08
4.32236529957e-09
5.40602992076e-10
1.92985387462e-10
9.01295325838e-11
3.56701524794e-11
1.07908122737e-11
2.46819254994e-12
4.29714937496e-13
5.54783246129e-14
4.58617162481e-15
2.36029873043e-16
4.57085935115e-06
9.37537366135e-06
2.41767489845e-05
7.87904735211e-05
0.000317154668161
0.000803561224794
0.00010531047698
5.50148529943e-06
1.45355666325e-07
8.41986906226e-09
8.00320126038e-10
2.14018782463e-10
9.58698512635e-11
4.0165271837e-11
1.30870471393e-11
3.21706072432e-12
5.99970173507e-13
8.25580323391e-14
7.24140722331e-15
4.00106707882e-16
5.00067973914e-06
1.00999806125e-05
2.52465003257e-05
7.87598725959e-05
0.000296638262972
0.000768613131365
0.000224066383513
1.42100151045e-05
3.35982120174e-07
1.70529324375e-08
1.3043183471e-09
2.56270752833e-10
1.02966078923e-10
4.44671695892e-11
1.55038647765e-11
4.08906129796e-12
8.16511229555e-13
1.19756592346e-13
1.11489305312e-14
6.61851644523e-16
5.57861147836e-06
1.10649306407e-05
2.68152768895e-05
8.02285164307e-05
0.000282943988778
0.000722832626868
0.00031436411929
2.39335784027e-05
6.22243294538e-07
2.66637896698e-08
1.81381897402e-09
3.00051573078e-10
1.10439842382e-10
4.85527372864e-11
1.79934841708e-11
5.08116753049e-12
1.08520679897e-12
1.69576297603e-13
1.67554497365e-14
1.0693049888e-15
6.36495886948e-06
1.23556838662e-05
2.90563147602e-05
8.35314977045e-05
0.00027617139684
0.000681083754227
0.000378712837673
3.21124242699e-05
1.56123141299e-06
4.68472445551e-08
2.54830438867e-09
3.53676116609e-10
1.18186607732e-10
5.23605626362e-11
2.04962502444e-11
6.18812253683e-12
1.41187097965e-12
2.34854244815e-13
2.46195444123e-14
1.6895262818e-15
7.42221145161e-06
1.40580455606e-05
3.21076834405e-05
8.87457090907e-05
0.000274891253593
0.000644587802618
0.000423632763595
3.83349588183e-05
1.59936969064e-06
7.04694946123e-08
4.83609814682e-09
5.00189676295e-10
1.33968766608e-10
5.65951665508e-11
2.3013879515e-11
7.40148047695e-12
1.80118056997e-12
3.18625645323e-13
3.54179995265e-14
2.61398671146e-15
8.81827495179e-06
1.62707988443e-05
3.60975471606e-05
9.57733883246e-05
0.000277022039069
0.000610470311331
0.000457341747687
4.34107449692e-05
2.13490296117e-06
1.04340817973e-07
8.44121707391e-09
7.35149171847e-10
1.60021029151e-10
6.18398131227e-11
2.55911795844e-11
8.70899085607e-12
2.25534062768e-12
4.23811939059e-13
4.99279421942e-14
3.96349271183e-15
1.06523218092e-05
1.91501445194e-05
4.12515963136e-05
0.000104735705688
0.000281772581932
0.000580578620788
0.000478313056237
4.74198656181e-05
2.80222314787e-06
1.50012759537e-07
1.41684482603e-08
1.05990776295e-09
1.93223135436e-10
6.8068310222e-11
2.82565089191e-11
1.0094066682e-11
2.77400750519e-12
5.53050616627e-13
6.90075515778e-14
5.89321652068e-15
1.30868911049e-05
2.29396217968e-05
4.79054204509e-05
0.000115854435648
0.000288658328233
0.000554373986773
0.000486991554315
5.01953695493e-05
3.4330050906e-06
2.36230813737e-07
2.35340128565e-08
1.53147575089e-09
2.33874613153e-10
7.49718330054e-11
3.09513565453e-11
1.15394899567e-11
3.35472968672e-12
7.08794087337e-13
9.36078587852e-14
8.60040070725e-15
1.63794458609e-05
2.7990015184e-05
5.64841776101e-05
0.000129340008483
0.000297305838851
0.000531554653039
0.000486546645959
5.33192974098e-05
4.0657148501e-06
5.1309744975e-07
4.01135532648e-08
2.31744111611e-09
2.90383930599e-10
8.30781549464e-11
3.36828105793e-11
1.30295481333e-11
3.99586098176e-12
8.93494048567e-13
1.24797066472e-13
1.23347678469e-14
2.09129326789e-05
3.47722881378e-05
6.74636585243e-05
0.000145304545139
0.000307337875923
0.000511897638766
0.000480305290631
7.43103123478e-05
5.92216950199e-06
4.44975619133e-07
6.66190872341e-08
4.25862321713e-09
4.15968522461e-10
9.72017195328e-11
3.6901672408e-11
1.45802854525e-11
4.69593525781e-12
1.10931436361e-12
1.63727197763e-13
1.74060664225e-14
2.72203904994e-05
4.38676374147e-05
8.12895621707e-05
0.000163640410248
0.000318102898119
0.00049429760141
0.000468169343031
0.000103086713739
8.68097056596e-06
3.9461261643e-07
9.67663475798e-08
7.61801051854e-09
6.17988276921e-10
1.19605106652e-10
4.10786554488e-11
1.62336536011e-11
5.45390036434e-12
1.3577130547e-12
2.11539108548e-13
2.41844944483e-14
3.59852199048e-05
5.59156863212e-05
9.82757744341e-05
0.000183959202117
0.000328711714703
0.000477419333314
0.000449925644354
0.00012330453275
1.10759977719e-05
5.35043697349e-07
1.31053320807e-07
1.25058928526e-08
8.91216149093e-10
1.49163729632e-10
4.63103552516e-11
1.80203661717e-11
6.26860976192e-12
1.63938923616e-12
2.69299365335e-13
3.30994517946e-14
4.79798152841e-05
7.14939312663e-05
0.000118464898332
0.000205544237897
0.000338192391439
0.000460173854896
0.000424614138712
0.000133504236602
1.26907589372e-05
6.92189658671e-07
1.59957323665e-07
2.06665968355e-08
1.32120903123e-09
1.88992371881e-10
5.27994884101e-11
1.99731442621e-11
7.14073452372e-12
1.95478525962e-12
3.38041054011e-13
4.46455481132e-14
6.38984164157e-05
9.09062008348e-05
0.000141447001597
0.000227309134448
0.000345612815234
0.000442252174682
0.000397199992389
0.000135367352734
1.34986951828e-05
8.17867057138e-07
2.06208202803e-07
3.20987373489e-08
2.06624377145e-09
2.49339127947e-10
6.15592720417e-11
2.2202577557e-11
8.07934615497e-12
2.30480310255e-12
4.18838952606e-13
5.93912315992e-14
8.40606700165e-05
0.000113898400197
0.000166188647877
0.000247811923196
0.000350019904393
0.000423088019875
0.000368024937578
0.000130032717967
1.35189782741e-05
8.91873743355e-07
2.39112542088e-07
4.5864591256e-08
3.44243442753e-09
3.50932507916e-10
7.46406583749e-11
2.49701802932e-11
9.11215176981e-12
2.69164700112e-12
5.12817957979e-13
7.79733229559e-14
0.000108026378046
0.000139386011538
0.000190987897706
0.000265427567662
0.000350603982242
0.000402153700929
0.000336967546012
0.000118315889239
1.27913310413e-05
9.03083188755e-07
1.82972863191e-07
5.80915581158e-08
5.92098586613e-09
5.32555577056e-10
9.55644010465e-11
2.87782372595e-11
1.03022257581e-11
3.1206303203e-12
6.21167984885e-13
1.0107255027e-13
0.000134271581983
0.000165358389857
0.000213668352114
0.000278631065628
0.000346824239406
0.000378988166028
0.000303800569068
0.000100660356381
1.1300153231e-05
8.46329996432e-07
1.13720014363e-07
6.73173440339e-08
9.81134199202e-09
8.32394402278e-10
1.28440750124e-10
3.42882605804e-11
1.17550936373e-11
3.6026569786e-12
7.45310612565e-13
1.29389500615e-13
0.000160200439704
0.000189161176862
0.000232044006091
0.000286335133504
0.000338472051308
0.000353140316357
0.000268087024145
7.65322434689e-05
8.9539947945e-06
7.71877962692e-07
8.18282734127e-08
7.60979189829e-08
1.50066129211e-08
1.31237452563e-09
1.78395954025e-10
4.22908799957e-11
1.36186504137e-11
4.15650285224e-12
8.87235623558e-13
1.63643586651e-13
0.000182755673495
0.000208232147183
0.000244548981584
0.000288149557122
0.000325651923135
0.000324183561122
0.000229601987026
4.83117513284e-05
5.95881796507e-06
6.04211116926e-07
6.5619093871e-08
8.52648525428e-08
2.12566760227e-08
2.05887929185e-09
2.5294424662e-10
5.37572024706e-11
1.60788339794e-11
4.80977640999e-12
1.0498708374e-12
2.04615001257e-13
0.000199523033682
0.000220987757706
0.000250665045512
0.000284370292312
0.000308663803452
0.000292326977148
0.000192172228642
3.34532911608e-05
4.4531594712e-06
5.07397134886e-07
6.06077911922e-08
9.33891479646e-08
2.82692445372e-08
3.21261886972e-09
3.65111801668e-10
7.00606367901e-11
1.93628959755e-11
5.5989280061e-12
1.23742295334e-12
2.53241192367e-13
0.000209626503912
0.000227235479328
0.000250809260645
0.000275561118033
0.000287708579612
0.000258202798213
0.000159076760806
2.85703018856e-05
4.11190085342e-06
5.11692288964e-07
6.6317947281e-08
9.75613047454e-08
3.56371192635e-08
4.95201112821e-09
5.35625495141e-10
9.30900391128e-11
2.37374315929e-11
6.56836111125e-12
1.45580964723e-12
3.10835381917e-13
0.000213603006307
0.000227699755404
0.000245651909413
0.000261940118394
0.000262449242912
0.00022183758202
0.00012905025355
2.48316811104e-05
3.92948588039e-06
5.40334756168e-07
7.6186323736e-08
9.57146675097e-08
4.26600892184e-08
7.40690361103e-09
8.06557095994e-10
1.26604417182e-10
2.95910072537e-11
7.77339075491e-12
1.71330287316e-12
3.79454487484e-13
0.00021234399755
0.000223023460362
0.000235359264607
0.000243047612425
0.000232127896116
0.000182815226566
9.72324526763e-05
2.02683368e-05
3.54615354037e-06
5.42324423337e-07
8.38869803301e-08
8.88397005729e-08
4.81496520925e-08
1.04666999941e-08
1.22435734068e-09
1.7543521927e-10
3.74047305135e-11
9.278332901e-12
2.02143800835e-12
4.62533533669e-13
0.000206031770413
0.000213002400514
0.000219238536949
0.000217821331273
0.000195822317284
0.000139981567101
5.55772128098e-05
1.30522690893e-05
2.58962883449e-06
4.50155065019e-07
7.92622864827e-08
7.8236259588e-08
5.13942753787e-08
1.39371272071e-08
1.84795648731e-09
2.45702324066e-10
4.77356450331e-11
1.11564140643e-11
2.39672748845e-12
5.65822964707e-13
0.000193883278404
0.000196708986812
0.000196425891012
0.000186192241596
0.000155996015932
0.000101144729943
3.04763035681e-05
7.82476179361e-06
1.72522459775e-06
3.36370204196e-07
6.76898670426e-08
6.69213137627e-08
5.23779413358e-08
1.76075140886e-08
2.73397411168e-09
3.46482979551e-10
6.12613776811e-11
1.3490372682e-11
2.86320196761e-12
6.98706067799e-13
0.000174606412938
0.000173118071006
0.00016660218801
0.000149280735797
0.000115143488623
6.38465619324e-05
1.93863224012e-05
5.18620880388e-06
1.22165436474e-06
2.58307623601e-07
5.77792505006e-08
5.73501650016e-08
5.17754067311e-08
2.09976597201e-08
3.87829598263e-09
4.87562363775e-10
7.87139612389e-11
1.63659753065e-11
3.45507089105e-12
8.75903608455e-13
0.000147467760645
0.00014207389382
0.000130562415767
0.000108918799143
7.4210480587e-05
2.93293823939e-05
1.00036017743e-05
2.97164248747e-06
7.7652345424e-07
1.82292988497e-07
4.66685978534e-08
4.94245496454e-08
4.99836879104e-08
2.36132248844e-08
5.29723851716e-09
6.86804052516e-10
1.01328963992e-10
1.98881421089e-11
4.22023760372e-12
1.11927434599e-12
0.000113572215573
0.000105233750341
9.03862809357e-05
6.62518731677e-05
3.21768471661e-05
1.3326320856e-05
4.88691486665e-06
1.58098506673e-06
4.54780921649e-07
1.18583375233e-07
3.57111479658e-08
4.27590586838e-08
4.7286570433e-08
2.52732262806e-08
6.89779404399e-09
9.66815307962e-10
1.30873060072e-10
2.4156060038e-11
5.2191544295e-12
1.46394010964e-12
7.50900798632e-05
6.4687138231e-05
4.80836330851e-05
2.62567557541e-05
1.29456065802e-05
5.71830151486e-06
2.25517915297e-06
7.93634456931e-07
2.50582701035e-07
7.27696320073e-08
2.6430008821e-08
3.66213235006e-08
4.43802782025e-08
2.64104026493e-08
8.60376920257e-09
1.35519388994e-09
1.66390174155e-10
2.8867439118e-11
6.47741714596e-12
1.95690693261e-12
3.37318256242e-28
6.43969921716e-28
4.35689741782e-28
7.31473642052e-28
1.1852143578e-27
1.4040822613e-27
4.26051817236e-27
3.69337292154e-27
1.45385799086e-26
9.34353279862e-27
4.57373198701e-26
2.34865101211e-26
1.34696010023e-25
5.84524236104e-26
3.76272619637e-25
1.43746030118e-25
1.00787639374e-24
3.49538129499e-25
2.61447706114e-24
8.42660971197e-25
6.62419469305e-24
2.02048357521e-24
1.65013923469e-23
4.83167730125e-24
4.06094621768e-23
1.15468926683e-23
9.90433466051e-23
2.76123074995e-23
2.39790584137e-22
6.60977590212e-23
5.7650936825e-22
1.58315123677e-22
1.37565962195e-21
3.78974156489e-22
3.25443318527e-21
9.05196112639e-22
7.62210860996e-21
2.15324560612e-21
1.7639960409e-20
5.091704421e-21
4.02610693813e-20
1.19332479108e-20
9.04432570805e-20
2.76278797672e-20
1.9958486809e-19
6.30243609777e-20
4.31929400145e-19
1.41351503577e-19
9.15456089841e-19
3.11149186874e-19
1.89774652387e-18
6.71517679512e-19
3.84450692201e-18
1.41807561835e-18
7.60442081275e-18
2.92575229642e-18
1.46749113818e-17
5.89048268675e-18
2.76149565795e-17
1.15629458328e-17
5.06650977682e-17
2.21206047168e-17
9.0642922724e-17
4.12384220819e-17
1.58194805562e-16
7.49347839505e-17
2.69532569059e-16
1.3279786467e-16
4.48822353671e-16
2.29733126784e-16
7.31284375287e-16
3.88362955111e-16
1.16689358588e-15
6.42143724575e-16
1.82477748505e-15
1.03929056401e-15
2.79891615589e-15
1.64779655504e-15
4.21545818389e-15
2.56182770269e-15
6.24052521374e-15
3.90917058202e-15
9.08681160917e-15
5.85875120851e-15
1.30191132126e-14
8.62749725871e-15
1.83603852816e-14
1.24864869753e-14
2.5496785687e-14
1.77652137062e-14
3.48757687921e-14
2.48506795488e-14
4.69924790203e-14
3.417737005e-14
6.23703784096e-14
4.62113567058e-14
8.15488523453e-14
6.14382995724e-14
1.0510187774e-13
8.03795899055e-14
1.33703007939e-13
1.03651724466e-13
1.68289612885e-13
1.32117450736e-13
2.1034890069e-13
1.67148089996e-13
2.62436632643e-13
2.11112729222e-13
3.2888209481e-13
2.68010688295e-13
4.16528151542e-13
3.439816365e-13
5.36188619479e-13
4.48760694089e-13
7.03026914966e-13
5.95294958979e-13
9.40757670759e-13
8.01552181935e-13
1.34552557722e-12
1.19704277952e-12
)
;

boundaryField
{
    inletfuel
    {
        type            fixedValue;
        value           uniform 0;
    }
    inletair
    {
        type            fixedValue;