/*--------------------------------*- C++ -*----------------------------------*\
  =========                 |
  \\      /  F ield         | OpenFOAM: The Open Source CFD Toolbox
   \\    /   O peration     | Website:  https://openfoam.org
    \\  /    A nd           | Version:  dev
     \\/     M anipulation  |
\*---------------------------------------------------------------------------*/
FoamFile
{
    version     2.0;
    format      ascii;
    class       volScalarField;
    location    "0.3";
    object      CH3O;
}
// * * * * * * * * * * * * * * * * * * * * * * * * * * * * * * * * * * * * * //

dimensions      [0 0 0 0 0 0 0];

internalField   nonuniform List<scalar> 
1629
(
3.38086912483e-20
2.92571075521e-20
2.03229573862e-20
5.00175783414e-18
5.83822532872e-18
8.25700438156e-18
4.18605525176e-16
6.98618138278e-16
1.9692711253e-15
2.74312348528e-14
6.44252602913e-14
3.13637157582e-13
1.63405608393e-12
4.59308991048e-12
2.12734362738e-11
8.70572444979e-11
2.83240411034e-10
1.26846372399e-09
3.63109927689e-09
1.27915049191e-08
5.58965653174e-08
9.05499399445e-08
3.2731477581e-07
1.4672117557e-06
3.88512245001e-07
1.06061765814e-06
3.38360061804e-06
9.83406470916e-07
2.07296745274e-06
4.95291875882e-06
1.83911584742e-06
3.12028078614e-06
5.86717993269e-06
2.84369446548e-06
4.09840367381e-06
6.47985163577e-06
3.93480638702e-06
5.10137432921e-06
7.30553154606e-06
5.0655832711e-06
6.13154208642e-06
8.19021162768e-06
6.17926101771e-06
7.1403547366e-06
9.03134544016e-06
7.1442181351e-06
7.95389933221e-06
9.51717314981e-06
7.7930379661e-06
8.39712927847e-06
9.50225243589e-06
7.99410439605e-06
8.36777058845e-06
8.98121155884e-06
7.71035414049e-06
7.87376315248e-06
8.06923303503e-06
7.02611536707e-06
7.03990835105e-06
6.96568985051e-06
6.11717670129e-06
6.05793495073e-06
5.87364541185e-06
5.15513781824e-06
5.07843673245e-06
4.88193975069e-06
4.2360282241e-06
4.16253598585e-06
3.97889800956e-06
3.3955508497e-06
3.32674094914e-06
3.15323775405e-06
2.6507140381e-06
2.5854805857e-06
2.4215125483e-06
2.01538474744e-06
1.95491956801e-06
1.80572666474e-06
1.49430280087e-06
1.44034396637e-06
1.31129623448e-06
1.07737525705e-06
1.03128889471e-06
9.25440903169e-07
7.4964943676e-07
7.12556636916e-07
6.30918305823e-07
4.99539257471e-07
4.72225301109e-07
4.14577734088e-07
3.19120413784e-07
3.00979055718e-07
2.63835428259e-07
1.97318977304e-07
1.86331532169e-07
1.64195519814e-07
1.19764291815e-07
1.13584130035e-07
1.01192825964e-07
7.26149161552e-08
6.93272198658e-08
6.27121943849e-08
4.47656643734e-08
4.30804854604e-08
3.96650240282e-08
2.85109861523e-08
2.76696511836e-08
2.59430514111e-08
1.89920220521e-08
1.85769916421e-08
1.77105691715e-08
1.33045336921e-08
1.30981279526e-08
1.26567696136e-08
9.76209786174e-09
9.65427434499e-09
9.41756366295e-09
7.4135147187e-09
7.35311847804e-09
7.21817092944e-09
5.76637123444e-09
5.7330466335e-09
5.65855105058e-09
4.59963526929e-09
4.5864138654e-09
4.55786206524e-09
3.81828352695e-09
3.82208122246e-09
3.83205714395e-09
3.36389204268e-09
3.38208580732e-09
3.42432556004e-09
3.18712290448e-09
3.21747567211e-09
3.28677727283e-09
3.24729303587e-09
3.28797729388e-09
3.38006019079e-09
3.50828499471e-09
3.55720528594e-09
3.6670820908e-09
3.9227785801e-09
3.97657898581e-09
4.09641515223e-09
4.41079899252e-09
4.4641937699e-09
4.58199930998e-09
4.84365591103e-09
4.88981354672e-09
4.99049913743e-09
5.05320950236e-09
5.08564874606e-09
5.15530246059e-09
4.88677195756e-09
4.90223684549e-09
4.93434028436e-09
4.29529329583e-09
4.29566675573e-09
4.29496761169e-09
3.38816259845e-09
3.37941213745e-09
3.35929529819e-09
2.38683981784e-09
2.37557521255e-09
2.35047919026e-09
1.5044738762e-09
1.49509886584e-09
1.47447909269e-09
8.57120390773e-10
8.51305199471e-10
8.38643081935e-10
4.57260854787e-10
4.54842308029e-10
4.49667207072e-10
2.55031204934e-10
2.55067185253e-10
2.55255560292e-10
1.82461252262e-10
1.83938567732e-10
1.87247409173e-10
1.80511150917e-10
1.82551352546e-10
1.87041274136e-10
2.09405826449e-10
2.11250187094e-10
2.15245425639e-10
2.36451717936e-10
2.37107628712e-10
2.38406932683e-10
1.2249717133e-12
6.36594315641e-11
3.51610312044e-09
1.69926715672e-07
5.46296075118e-06
8.83117303819e-06
9.747704509e-06
9.24379213615e-06
9.0455438999e-06
9.94209784485e-06
1.07191209652e-05
1.13509072152e-05
1.12687507554e-05
1.0553027785e-05
9.37966607846e-06
7.99066667064e-06
6.64033619586e-06
5.49584056116e-06
4.53175434662e-06
3.6554473663e-06
2.84869847943e-06
2.14229300031e-06
1.56371551868e-06
1.11408628512e-06
7.73867783702e-07
5.2203531407e-07
3.41987000951e-07
2.18707593589e-07
1.37733372086e-07
8.64070231294e-08
5.4749098587e-08
3.54851476838e-08
2.37792805503e-08
1.65902830802e-08
1.20620596808e-08
9.08489569803e-09
7.02396284461e-09
5.55269761815e-09
4.52059392835e-09
3.8514677016e-09
3.49047505469e-09
3.39171331117e-09
3.51709229428e-09
3.82819496697e-09
4.26940620525e-09
4.74909777914e-09
5.13033104263e-09
5.24918915693e-09
4.97474980911e-09
4.29012558431e-09
3.32871189323e-09
2.31425905575e-09
1.44537913805e-09
8.21097023028e-10
4.42728883535e-10
2.55797780123e-10
1.92067081009e-10
1.93382591698e-10
2.20724285763e-10
2.39867199901e-10
9.08532336183e-19
1.70843921829e-17
5.09352544195e-17
7.81266926599e-17
6.13340101203e-17
2.99027007899e-17
1.02019151368e-17
2.60208042125e-18
5.21610849282e-19
8.44843800243e-20
1.1210704249e-20
1.23058241408e-21
1.12612189619e-22
8.65431530642e-24
5.63071483069e-25
3.13310444557e-26
1.51258402646e-27
6.44479887229e-29
2.45269020698e-30
3.21691729283e-32
2.20730258916e-17
3.04209020733e-16
1.11913407703e-15
1.90604289283e-15
1.37089096804e-15
5.83320432463e-16
1.72126560284e-16
3.81232139671e-17
6.72121560673e-18
9.66787376012e-19
1.14959864181e-19
1.14150346188e-20
9.54666062701e-22
6.78090788608e-23
4.12944872905e-24
2.18230848445e-25
1.01885602616e-26
4.29155177499e-28
1.61367987491e-29
2.23325807787e-31
1.07768433498e-15
2.91340049177e-15
1.43279735048e-14
2.66953763489e-14
1.73517054113e-14
6.48197424597e-15
1.68367301983e-15
3.32386976795e-16
5.29220293059e-17
6.92515622304e-18
7.5496990023e-19
6.92986792077e-20
5.40392317449e-21
3.61161979796e-22
2.09002837499e-23
1.06167334607e-24
4.83091731314e-26
2.02662392139e-27
7.63445922026e-29
1.05986464618e-30
1.22620066147e-13
2.00673856594e-14
1.68338242771e-13
2.93132570691e-13
1.69164237705e-13
5.68863122261e-14
1.34461853798e-14
2.45758549167e-15
3.64771376697e-16
4.48053214029e-17
4.61864997903e-18
4.03724068518e-19
3.0184459489e-20
1.94688371284e-21
1.09461670857e-22
5.44279118549e-24
2.44697205255e-25
1.02865027487e-26
3.96956835695e-28
6.6407135042e-30
2.00371680317e-11
1.77946510061e-12
3.10055894792e-12
3.66445358149e-12
1.71368668282e-12
5.0416208968e-13
1.0611163046e-13
1.78707497967e-14
2.45299441054e-15
2.8181964081e-16
2.7490188497e-17
2.29784643603e-18
1.65789291677e-19
1.04019548779e-20
5.73024054406e-22
2.81155796869e-23
1.2570790092e-24
5.31389489844e-26
2.1053317064e-27
4.48250432165e-29
3.52327637001e-09
6.40867130678e-10
1.20414050885e-10
5.35576307889e-11
1.74741763742e-11
4.31950296869e-12
8.07514238604e-13
1.21079860677e-13
1.53397077868e-14
1.6433873498e-15
1.51976473533e-16
1.22039150425e-17
8.54909544458e-19
5.25281654503e-20
2.85401260027e-21
1.38983466073e-22
6.20485473017e-24
2.6374452554e-25
1.05731803695e-26
2.49560526609e-28
4.61913928479e-07
3.96900410143e-07
1.51214273115e-08
1.19985430937e-09
1.93694285036e-10
3.46159080188e-11
5.45005460003e-12
7.2522604381e-13
8.32793386422e-14
8.41744395239e-15
7.47032521287e-16
5.83509068404e-17
4.01573605443e-18
2.44191838442e-19
1.32036138945e-20
6.42609414821e-22
2.87613353013e-23
1.227541786e-24
4.89740281826e-26
1.1809560469e-27
2.77180148473e-05
1.0533540558e-06
7.41429875126e-07
3.0902263359e-08
2.2088998587e-09
2.26063609869e-10
2.75863105806e-11
3.28916593587e-12
3.58548282642e-13
3.5023270994e-14
3.08582315257e-15
2.41096968156e-16
1.6668231303e-17
1.02085588959e-18
5.56773939703e-20
2.73468800109e-21
1.23389128585e-22
5.2866841569e-24
2.07617536887e-25
4.85415729018e-27
2.69123579327e-05
1.110549307e-06
8.38571192064e-07
2.54997432021e-08
2.3311835108e-09
3.5365045376e-10
5.59593658079e-11
8.08495813653e-12
1.00507954252e-12
1.07635459966e-13
1.0156559768e-14
8.32446342518e-16
5.97637358215e-17
3.77522969217e-18
2.1128685703e-19
1.0599862199e-20
4.85643588659e-22
2.09287579179e-23
8.04963067285e-25
1.76925185546e-26
1.9774347113e-05
1.28756739933e-06
5.91485384148e-07
1.35418858225e-08
1.62019196415e-09
3.82719859398e-10
8.04000589816e-11
1.4473191513e-11
2.1406991154e-12
2.62877481304e-13
2.7430857681e-14
2.43188858707e-15
1.85913443317e-16
1.23553359961e-17
7.20452341409e-19
3.73310123363e-20
1.74939382821e-21
7.60721604093e-23
2.86263945641e-24
5.83000795926e-26
1.36470252366e-05
1.67860226738e-06
1.21809687475e-06
3.03774236336e-08
2.06775416496e-09
4.62054642253e-10
1.116607645e-10
2.34698775083e-11
4.01464566672e-12
5.57279698706e-13
6.39725072159e-14
6.22762964652e-15
5.13541591621e-16
3.63091888222e-17
2.22692917063e-18
1.2008869534e-19
5.78771320054e-21
2.54752988045e-22
9.38897293064e-24
1.76354259454e-25
1.26762274252e-05
8.71835975538e-06
5.84676959564e-07
2.64326206874e-07
1.57470709026e-08
1.52827676815e-09
2.36774161351e-10
4.38122319183e-11
7.63647611209e-12
1.13111010288e-12
1.400153032e-13
1.47816834848e-14
1.30311226295e-15
9.79008400399e-17
6.32846996379e-18
3.5625395396e-19
1.77118997885e-20
7.9098646478e-22
2.86030801426e-23
4.95823166839e-25
1.5230607133e-05
9.89802696048e-06
6.91919534004e-07
5.50178992584e-07
3.00957657429e-08
2.44078210443e-09
3.93931165574e-10
7.47426704016e-11
1.37043932191e-11
2.16961430037e-12
2.89299117891e-13
3.22934642285e-14
3.05652224985e-15
2.44554623421e-16
1.6693596122e-17
9.82953913274e-19
5.05162125496e-20
2.29352049337e-21
8.15622475189e-23
1.31015254633e-24
1.54762216237e-05
6.39240338509e-06
5.18304675994e-07
4.09628854022e-07
3.73445216357e-08
2.85542505973e-09
5.17763115991e-10
1.09752797201e-10
2.21786792586e-11
3.84043669607e-12
5.53311490023e-13
6.6185077071e-14
6.71760519172e-15
5.72339153734e-16
4.12722162078e-17
2.54396204862e-18
1.35317428051e-19
6.25689459491e-21
2.19394451724e-22
3.2871005598e-24
1.54115938492e-05
4.90040353135e-06
4.47428939945e-07
3.62557224286e-07
6.82563251194e-08
5.75159263739e-09
8.36401671718e-10
1.69703898435e-10
3.54980913537e-11
6.55764076618e-12
1.0117415576e-12
1.29501226561e-13
1.4120205452e-14
1.27265969245e-15
9.66554770958e-17
6.2297431252e-18
3.43058719499e-19
1.61771830563e-20
5.60854181922e-22
7.90165183155e-24
1.36507904899e-05
3.44309935197e-06
3.78518701451e-07
9.82948717162e-08
2.21152141086e-07
2.61232731594e-08
2.43974468298e-09
3.57575591731e-10
6.46506064089e-11
1.1631652946e-11
1.84286372316e-12
2.47858580468e-13
2.83487468582e-14
2.69840956455e-15
2.1556112324e-16
1.45195573566e-17
8.28096410665e-19
3.9883774144e-20
1.3713311216e-21
1.8333392063e-23
1.1374985338e-05
2.71835854127e-06
2.06708260652e-07
3.78695525733e-08
2.27893569874e-07
3.47121515628e-08
3.28917056681e-09
5.3934235843e-10
1.02929773771e-10
1.9342548465e-11
3.21230764001e-12
4.53338280574e-13
5.39796244953e-14
5.44781500347e-15
4.58569573872e-16
3.23131622058e-17
1.91113442366e-18
9.42036336647e-20
3.22332309398e-21
4.1289389859e-23
9.0173673316e-06
2.05726183282e-06
1.35409526491e-07
2.14128506161e-08
1.10371339363e-07
2.39065809779e-08
2.69477220187e-09
5.90004775564e-10
1.34164059516e-10
2.83202816253e-11
5.14191944345e-12
7.79719077622e-13
9.83876095622e-14
1.05431713285e-14
9.34490875581e-16
6.89146342401e-17
4.23208540432e-18
2.13965161201e-19
7.3122314887e-21
9.06361753253e-23
6.94536179765e-06
1.54699645026e-06
1.02908895056e-07
1.76210646244e-08
5.94551575321e-08
1.62086773884e-08
2.06687928819e-09
5.62589643975e-10
1.54390585201e-10
3.73532242077e-11
7.56444595026e-12
1.25283303672e-12
1.70055982132e-13
1.95561831035e-14
1.82642493724e-15
1.41109443668e-16
9.01280355077e-18
4.68532511462e-19
1.60539983543e-20
1.94445888854e-22
5.38768287016e-06
1.2365593654e-06
1.00360115874e-07
3.31758363233e-08
4.1908931298e-08
2.69566092595e-08
2.8392104133e-09
6.02462616195e-10
1.78049336852e-10
4.75445946315e-11
1.06018617779e-11
1.91447441368e-12
2.8091298014e-13
3.44006783124e-14
3.40827093399e-15
2.77032952427e-16
1.84641418494e-17
9.90242748647e-19
3.41621011829e-20
4.0819044159e-22
4.32546391111e-06
1.0377286653e-06
1.08456874484e-07
1.38283829545e-07
1.67151143865e-08
8.0268298025e-08
2.6404697174e-08
2.43162127172e-09
3.66607355097e-10
7.48585292255e-11
1.58060465994e-11
2.93215126163e-12
4.53216680618e-13
5.77307531208e-14
6.08595721078e-15
5.22086775915e-16
3.64252678937e-17
2.02210315418e-18
7.05268493086e-20
8.38796325621e-22
3.49166756205e-06
8.58254179953e-07
1.09713594161e-07
1.4570761947e-07
1.32269747094e-08
4.23341518994e-08
2.79453641934e-08
3.10776712271e-09
5.24716078505e-10
1.09199197239e-10
2.32202504844e-11
4.42863116866e-12
7.1296688376e-13
9.48222364291e-14
1.05345659941e-14
9.51055795873e-16
6.94735808764e-17
3.99942778093e-18
1.4147417169e-19
1.68802418282e-21
2.70463024153e-06
6.68417134532e-07
9.62978472237e-08
8.28743319637e-08
9.78985284678e-09
1.47947608952e-08
1.36719768577e-08
2.13809050149e-09
5.13953167348e-10
1.30855775154e-10
3.08987160403e-11
6.32903031656e-12
1.07975583341e-12
1.51244734075e-13
1.78018584756e-14
1.68440644882e-15
1.28654220267e-16
7.68423541885e-18
2.76273731015e-19
3.32907432555e-21
1.98922868803e-06
4.97437410569e-07
7.90669623812e-08
4.69830379796e-08
8.24118203656e-09
1.18720830239e-08
7.78135470737e-09
1.35428869219e-09
4.19440899134e-10
1.37661159834e-10
3.75508886962e-11
8.48468941759e-12
1.56008528804e-12
2.32680036181e-13
2.91519950053e-14
2.89589012449e-15
2.31476226938e-16
1.43597547078e-17
5.25773926785e-19
6.43488752843e-21
1.40565090831e-06
3.62762081975e-07
6.41748133361e-08
3.03078616754e-08
9.83651803921e-09
3.73486455059e-09
4.040225294e-08
1.1366232538e-08
1.10082964156e-09
2.04921981161e-10
4.94334912491e-11
1.13531994893e-11
2.19762494392e-12
3.47819600929e-13
4.58071708189e-14
4.80777158535e-15
4.03685204412e-16
2.60768939573e-17
9.74718011414e-19
1.21784248958e-20
9.73496930153e-07
2.65535040667e-07
5.35966031684e-08
2.3582532081e-08
3.25124877135e-08
3.41362495975e-09
2.56083166757e-08
1.95640145588e-08
1.90184794626e-09
3.05745599749e-10
6.72584182397e-11
1.52563017521e-11
3.04867014977e-12
5.06787388542e-13
6.90531412695e-14
7.69311159164e-15
6.81202570375e-16
4.59599606988e-17
1.75834394235e-18
2.2528924323e-20
6.69717013186e-07
1.96737106217e-07
4.61562559331e-08
2.12941076509e-08
5.65619538893e-08
4.95292240105e-09
1.16251846874e-08
1.54573702681e-08
1.80466569681e-09
3.38561891272e-10
8.15764062975e-11
1.94853715932e-11
4.08811266638e-12
7.13561512393e-13
1.01675735798e-13
1.19527855067e-14
1.11542399275e-15
7.86846579883e-17
3.0860851304e-18
4.06916490666e-20
4.57631568319e-07
1.46155013581e-07
3.97204049782e-08
1.99200743676e-08
6.59610703988e-08
6.06878624244e-09
9.20096759624e-09
6.49679447147e-09
1.08846811848e-09
2.85879343921e-10
8.57269568755e-11
2.29971893996e-11
5.21777281317e-12
9.69387297584e-13
1.45693616702e-13
1.81378673484e-14
1.77946983727e-15
1.31155081213e-16
5.27515662543e-18
7.17548639361e-20
3.08962487232e-07
1.07668563951e-07
3.34504291183e-08
1.85922260344e-08
6.63960764904e-08
1.08152320121e-08
5.07446114573e-08
4.05779736672e-09
6.39564932674e-10
2.06664402809e-10
8.0962496491e-11
2.52625543797e-11
6.32993110876e-12
1.26747407405e-12
2.02625767717e-13
2.68973537239e-14
2.77110816194e-15
2.13231532662e-16
8.79237808239e-18
1.23574465891e-19
2.0584788191e-07
7.86711216445e-08
2.76977275149e-08
1.69352828601e-08
5.83198878024e-08
8.77790657601e-09
1.04103416745e-08
1.71425074409e-08
6.7584687857e-09
5.90192853439e-10
1.10958777294e-10
2.99771167621e-11
7.66657571352e-12
1.62111658315e-12
2.74938900727e-13
3.87656342187e-14
4.20451581208e-15
3.38019603869e-16
1.42899140558e-17
2.07763852119e-19
1.3582863936e-07
5.73233762038e-08
2.27651192733e-08
1.50747860263e-08
4.7174575275e-08
9.49579094404e-09
2.77973112051e-09
1.04906974467e-08
1.24168270264e-08
1.12527594432e-09
1.66927474579e-10
3.83841777102e-11
9.48336837346e-12
2.05790830922e-12
3.66618480689e-13
5.38375525445e-14
6.18508003452e-15
5.21054087315e-16
2.26064158092e-17
3.40394189485e-19
8.93677754332e-08
4.19136542242e-08
1.87084199915e-08
1.33889217278e-08
3.78285491612e-08
1.34981254212e-08
1.73203212275e-09
6.71845368249e-09
1.20343727578e-08
1.23382073342e-09
1.95539920421e-10
4.6148278899e-11
1.15446016244e-11
2.57851711716e-12
4.79902273657e-13
7.26037297729e-14
8.82986152151e-15
7.80297478944e-16
3.4757162204e-17
5.42387738787e-19
5.91748947164e-08
3.09674596903e-08
1.54730665698e-08
1.20503288823e-08
3.12815846642e-08
1.70162914772e-08
2.56159356924e-09
1.6584588547e-08
7.20471021784e-09
1.01982450636e-09
1.85207560488e-10
4.99320574329e-11
1.34193807798e-11
3.15380742394e-12
6.12529610743e-13
9.63213752201e-14
1.230954419e-14
1.13792888653e-15
5.1961312252e-17
8.40154229244e-19
3.98349422141e-08
2.32344684188e-08
1.29066709756e-08
1.10102322434e-08
2.68766720831e-08
1.97022684165e-08
2.1149145006e-09
3.23544945548e-09
1.54491250494e-08
2.77324461423e-09
2.79237943334e-10
5.98161203515e-11
1.57181090791e-11
3.80651569443e-12
7.69663427212e-13
1.25887733942e-13
1.68701779335e-14
1.62276421613e-15
7.57115459855e-17
1.2669005675e-18
2.74640736492e-08
1.76918170829e-08
1.08255342831e-08
1.01289841059e-08
2.35668304021e-08
2.25408819008e-08
3.14984739303e-09
1.33011908497e-09
1.94156789143e-08
5.74709255809e-09
4.64900943808e-10
7.90919864862e-11
1.90349641039e-11
4.60144816718e-12
9.5665616782e-13
1.62276951312e-13
2.28514967946e-14
2.27223752033e-15
1.07848073241e-16
1.86435096302e-18
1.94942727926e-08
1.36730884115e-08
9.16501913627e-09
9.42121727024e-09
2.11082044742e-08
2.3880968294e-08
4.3204091711e-09
1.07093874686e-09
1.39247977118e-08
9.91673397867e-09
7.27064885689e-10
1.0575980267e-10
2.34557751239e-11
5.58230889805e-12
1.18143640426e-12
2.06865106853e-13
3.04877936499e-14
3.1256245534e-15
1.50425390501e-16
2.68242399525e-18
1.42802480251e-08
1.07347922706e-08
7.87718566274e-09
8.89659306648e-09
1.92878644836e-08
2.35412604011e-08
4.62232795089e-09
1.01650079451e-09
1.00816039837e-08
1.33819946833e-08
9.93241675845e-10
1.32163387289e-10
2.83855786812e-11
6.73509761746e-12
1.45032801014e-12
2.616202638e-13
3.98593565337e-14
4.21717108037e-15
2.0547344903e-16
3.77702583692e-18
1.07766334009e-08
8.57224187117e-09
6.90824283231e-09
8.55055787386e-09
1.79635205162e-08
2.23065430299e-08
4.78557975577e-09
1.81008976177e-09
2.08218434153e-08
1.46139389523e-08
1.23711048485e-09
1.53645609846e-10
3.30865534862e-11
7.99276668236e-12
1.76487931987e-12
3.28642669804e-13
5.0656476086e-14
5.56081863372e-15
2.74488965823e-16
5.20346594793e-18
8.33476555111e-09
6.97906248502e-09
6.20889211433e-09
8.36385851165e-09
1.69702835606e-08
2.05876641849e-08
4.74472945003e-09
8.85167267071e-10
3.73246932633e-09
2.39110715973e-08
2.63612582234e-09
2.32122386158e-10
4.18396610389e-11
9.65979475671e-12
2.14944154129e-12
4.10717675514e-13
6.37397626093e-14
7.20556537542e-15
3.59390618275e-16
7.02380457918e-18
6.57993694483e-09
5.82219419765e-09
5.73989771101e-09
8.30814232005e-09
1.61472546273e-08
1.86134241097e-08
4.66056191603e-09
6.11065541387e-10
1.42400199461e-09
2.57436782804e-08
4.46829621478e-09
3.37486118617e-10
5.38708834123e-11
1.18032035136e-11
2.62082357614e-12
5.086608056e-13
7.99843591062e-14
9.22412889514e-15
4.62711796719e-16
9.31097604872e-18
5.31776044597e-09
5.01794815545e-09
5.47446771839e-09
8.36248557143e-09
1.54081554104e-08
1.66631316819e-08
4.5151549109e-09
5.57291286278e-10
1.11319318842e-09
2.10354247717e-08
6.80622583171e-09
4.5614835017e-10
6.66108766713e-11
1.41937629443e-11
3.16625439126e-12
6.24635902036e-13
9.98803095649e-14
1.16882255385e-14
5.87204654409e-16
1.21479237781e-17
4.44961597319e-09
4.51160519074e-09
5.39458825704e-09
8.50485883777e-09
1.46884766597e-08
1.47765764712e-08
4.3071509157e-09
5.32639711464e-10
9.15441450528e-10
1.44751671459e-08
9.83844811875e-09
6.14824374667e-10
7.99011949946e-11
1.66505070367e-11
3.76142475331e-12
7.58957283746e-13
1.23819409444e-13
1.46769216723e-14
7.36231695544e-16
1.56410945344e-17
3.9136657341e-09
4.26333134566e-09
5.48374903743e-09
8.70434998637e-09
1.39371175168e-08
1.29752562052e-08
4.06463056564e-09
5.89628249307e-10
7.50874869308e-10
1.01089590868e-08
1.31862238562e-08
8.59035383616e-10
9.56776405002e-11
1.92001530046e-11
4.39285758111e-12
9.1023077095e-13
1.52111026733e-13
1.83894611386e-14
9.1699067751e-16
1.99774396413e-17
3.66092574525e-09
4.24114852521e-09
5.71938168968e-09
8.9171019242e-09
1.31125950925e-08
1.12732050774e-08
3.81997017487e-09
1.10498966367e-09
3.30852680316e-10
2.32862066025e-09
1.87106023391e-08
1.49067326261e-09
1.30298533082e-10
2.30184068589e-11
5.1414725066e-12
1.08346763337e-12
1.85329905271e-13
2.29141238975e-14
1.13578452821e-15
2.53763392224e-17
3.65095398297e-09
4.41479153381e-09
6.06461367167e-09
9.08294614132e-09
1.21737581075e-08
9.65225733814e-09
3.49588267914e-09
1.44703004206e-09
2.20990089344e-10
9.39745077265e-10
2.05769572079e-08
2.42591377376e-09
1.793931326e-10
2.81523118225e-11
6.04482530056e-12
1.28353220661e-12
2.2408085804e-13
2.83114142044e-14
1.39677634153e-15
3.20385047938e-17
3.84803424225e-09
4.74629567224e-09
6.46194521245e-09
9.12865610845e-09
1.10902820019e-08
8.1110095893e-09
3.09839727422e-09
1.54581440445e-09
2.13354892475e-10
7.81161174425e-10
1.73486142622e-08
3.47323900061e-09
2.3400260243e-10
3.3626785106e-11
7.02510146673e-12
1.50533134262e-12
2.68278343047e-13
3.45727615694e-14
1.70079050364e-15
4.01125966073e-17
4.20989080642e-09
5.17854935412e-09
6.83017637537e-09
8.97743237288e-09
9.85804315539e-09
6.67336892029e-09
2.66824574636e-09
1.52810199943e-09
2.02234533595e-10
5.67355401527e-10
1.04207330634e-08
4.88561314428e-09
3.14610859403e-10
3.99228623205e-11
8.0557178834e-12
1.74206962005e-12
3.17326981738e-13
4.16262183729e-14
2.04616553728e-15
4.97190046455e-17
4.67115343424e-09
5.62454435532e-09
7.06578202104e-09
8.56137496623e-09
8.49785300898e-09
5.35903304877e-09
2.26642683067e-09
1.45808327311e-09
1.82834580649e-10
3.47659029451e-10
5.3227033486e-09
6.20175252088e-09
4.49585075879e-10
4.87059041681e-11
9.2362881076e-12
1.9961213933e-12
3.70965778863e-13
4.93932107261e-14
2.43123038112e-15
6.10130987794e-17
5.12858406892e-09
5.96403630054e-09
7.05600842657e-09
7.84312788999e-09
7.05975156073e-09
4.18995157637e-09
1.90941633473e-09
1.36064098759e-09
1.61908405399e-10
1.79593654622e-10
2.2602314558e-09
7.08320418753e-09
6.89051696603e-10
6.3070913105e-11
1.08118257898e-11
2.28630680931e-12
4.30243775978e-13
5.78645236912e-14
2.85685452941e-15
7.42423182208e-17
5.4394000786e-09
6.05792121845e-09
6.70870384765e-09
6.83799388459e-09
5.61943086337e-09
3.1870928044e-09
1.60449076782e-09
1.24318967728e-09
1.43869997993e-10
8.45063258985e-11
8.74572730753e-10
7.19985471894e-09
1.07970516388e-09
8.74888012718e-11
1.31415520598e-11
2.64926207845e-12
4.98275964773e-13
6.7179869062e-14
3.32844376565e-15
8.97974816854e-17
5.44859684394e-09
5.78931068563e-09
5.9938080609e-09
5.62420913038e-09
4.26462149014e-09
2.36403559607e-09
1.35145790772e-09
1.10096169751e-09
1.28346917346e-10
5.18820141845e-11
4.93397185612e-10
6.30011848562e-09
1.57842184478e-09
1.2448895685e-10
1.64680589554e-11
3.12071584242e-12
5.79501382261e-13
7.76469562378e-14
3.8577768226e-15
1.08298687503e-16
5.05224603841e-09
5.12302770043e-09
4.97486840685e-09
4.33209637614e-09
3.07696276009e-09
1.72248268112e-09
1.14084623732e-09
9.01822460096e-10
1.08732851303e-10
4.49223985129e-11
3.79845557733e-10
4.71568429097e-09
2.07177120302e-09
1.79396999793e-10
2.10818451357e-11
3.73560306263e-12
6.79119238965e-13
8.97206893739e-14
4.46381731879e-15
1.30700252283e-16
4.26845728325e-09
4.14649384036e-09
3.80382339261e-09
3.11082292337e-09
2.11564274605e-09
1.25098567901e-09
9.4250940135e-10
5.10241183603e-10
6.78235232732e-11
3.85693338579e-11
2.92188866084e-10
3.06143464198e-09
2.47030461153e-09
2.59808684382e-10
2.74650653675e-11
4.53532369699e-12
8.02844949759e-13
1.03939745371e-13
5.1709690368e-15
1.58361159978e-16
3.25352243811e-09
3.04739041167e-09
2.66802639123e-09
2.08392842482e-09
1.40505460897e-09
9.32015731606e-10
7.82264186284e-10
1.83907385573e-10
3.14836670878e-11
3.00479488854e-11
2.08469582356e-10
1.83744642627e-09
2.71201967892e-09
3.7398836905e-10
3.64488091599e-11
5.5787656125e-12
9.56972109802e-13
1.20839148205e-13
6.00553422728e-15
1.93078888325e-16
2.23016281598e-09
2.03086173128e-09
1.72067069371e-09
1.31844941365e-09
9.35245025947e-10
7.45331657411e-10
7.03212391025e-10
1.31350071825e-10
2.3021859445e-11
2.38126549028e-11
1.4590211229e-10
1.11211859303e-09
2.76036367412e-09
5.25431597368e-10
4.93811197566e-11
6.95003003538e-12
1.14800916683e-12
1.40845462165e-13
6.99365089066e-15
2.37248154539e-16
1.37958247538e-09
1.2355105956e-09
1.03602037288e-09
8.16859349387e-10
6.62324282952e-10
6.47535270722e-10
6.5951532923e-10
1.25679591987e-10
2.27540566984e-11
2.02086569481e-11
1.07673278032e-10
7.32253982133e-10
2.59599547827e-09
7.04672094745e-10
6.90442472419e-11
8.82306857497e-12
1.38398526787e-12
1.64230488701e-13
8.16174527307e-15
2.94220023727e-16
7.82312927306e-10
7.03698838806e-10
6.09523599385e-10
5.33501160304e-10
5.25301883786e-10
5.92724005036e-10
5.97269644784e-10
1.21681475608e-10
2.367481869e-11
1.83875001879e-11
8.53584832734e-11
5.24885359186e-10
2.23975929455e-09
8.78483451563e-10
9.83910461429e-11
1.14087486808e-11
1.67205619473e-12
1.91000426511e-13
9.54139047112e-15
3.69137342937e-16
4.28043821458e-10
4.03175169247e-10
3.85859717627e-10
3.98784551861e-10
4.5839747131e-10
5.2535678108e-10
4.0834709702e-10
9.28985948105e-11
2.06896629671e-11
1.6925859473e-11
7.09080945685e-11
3.94869978549e-10
1.78962963446e-09
1.01256636308e-09
1.40193250413e-10
1.49459159242e-11
2.02671710873e-12
2.21460089698e-13
1.11976398503e-14
4.70806536964e-16
2.57780098272e-10
2.67790658476e-10
2.94899350059e-10
3.48592354285e-10
4.19470451369e-10
4.37111408594e-10
1.54510283e-10
4.37675348944e-11
1.29633053005e-11
1.49664905153e-11
6.01827303146e-11
3.04607807183e-10
1.36537221577e-09
1.08335109341e-09
1.94941857555e-10
1.97417142667e-11
2.45406558337e-12
2.55866171834e-13
1.32424915188e-14
6.14335116585e-16
2.03370475095e-10
2.31366380434e-10
2.77546394497e-10
3.40811891683e-10
3.9718637529e-10
3.59819812162e-10
1.07240276441e-10
2.94532588145e-11
9.89839044417e-12
1.36403657161e-11
5.17414102268e-11
2.39211238874e-10
1.02415480543e-09
1.07698422325e-09
2.57160244357e-10
2.61153993816e-11
2.95647700773e-12
2.94492036485e-13
1.58509072713e-14
8.25095176308e-16
2.07718134559e-10
2.39328197339e-10
2.82622969231e-10
3.24387965608e-10
3.17249863502e-10
1.37271572487e-10
4.92524089578e-11
1.5909529213e-11
7.17761545774e-12
1.24410051079e-11
4.48691281586e-11
1.90812573944e-10
7.68640121387e-10
1.00282024828e-09
3.21276777894e-10
3.48426714687e-11
3.55420035927e-12
3.38144148645e-13
1.92921693893e-14
1.14498287199e-15
2.32645519073e-10
2.5531387118e-10
2.75873781056e-10
2.65365574027e-10
1.54658122325e-10
6.37538276142e-11
2.38590286634e-11
8.72917132555e-12
5.47377524591e-12
1.13896091938e-11
3.90696098457e-11
1.5393545164e-10
5.81010492496e-10
8.87704230401e-10
3.74714361389e-10
4.68500855813e-11
4.27660482568e-12
3.86970382431e-13
2.38867891358e-14
1.64281359518e-15
2.42094348764e-10
2.38561382272e-10
2.09211038051e-10
1.19989133901e-10
6.02082948941e-11
2.69580639985e-11
1.10473433363e-11
4.84907133799e-12
4.31138752481e-12
1.00492909888e-11
3.28846604908e-11
1.21686842531e-10
4.37569434172e-10
7.62036187863e-10
4.09079161099e-10
6.30974739983e-11
5.03550159683e-12
4.31042234721e-13
2.95546431068e-14
2.40717612217e-15
1.20826036922e-30
5.13080438283e-32
5.4264434975e-30
3.78402502179e-31
2.80374038709e-29
2.78155005347e-30
1.17279711588e-28
1.0585291984e-29
4.07114005951e-28
3.11798111187e-29
1.24734916535e-27
8.1076001212e-29
3.49789312957e-27
1.94125325638e-28
9.14264173595e-27
4.35809361008e-28
2.2575578407e-26
9.28431496859e-28
5.33262677669e-26
1.89626382825e-27
1.21776555401e-25
3.74349839422e-27
2.71031223853e-25
7.67962742238e-27
5.91287874823e-25
1.62867379256e-26
1.26941480385e-24
3.44930606112e-26
2.68872478613e-24
7.25290760077e-26
5.62589193446e-24
1.51408232617e-25
1.16293197289e-23
3.13548816926e-25
2.373128233e-23
6.43214596101e-25
4.77751391395e-23
1.30538286966e-24
9.48266076085e-23
2.61991849578e-24
1.85407458849e-22
5.1863945965e-24
3.56509078539e-22
1.0093017856e-23
6.72616571711e-22
1.92621361602e-23
1.24293759431e-21
3.59835597021e-23
2.24780746789e-21
6.57497668497e-23
3.9754311122e-21
1.1757048593e-22
6.86941100137e-21
2.0520919948e-22
1.15721611304e-20
3.48831286746e-22
1.89616854556e-20
5.7622938034e-22
3.01963189897e-20
9.24299643827e-22
4.67877256208e-20
1.44142048029e-21
7.07015033262e-20
2.1908192129e-21
1.0440801171e-19
3.25273113251e-21
1.50870439671e-19
4.72494152644e-21
2.13363980395e-19
6.71879778726e-21
2.95714194828e-19
9.36868564157e-21
4.0251517486e-19
1.28459581821e-20
5.39264588673e-19
1.73817454472e-20
7.13216016499e-19
2.33380284561e-20
9.36242993391e-19
3.13991630888e-20
1.22394317388e-18
4.27735203373e-20
1.59399506381e-18
5.96150044288e-20
2.06589423653e-18
8.59766165834e-20
2.66485272473e-18
1.29801823195e-19
3.42998866084e-18
2.06632203139e-19
4.42544521466e-18
3.45973988452e-19
5.75579460287e-18
6.01605211578e-19
7.58985999971e-18
1.06730252999e-18
1.0193945972e-17
1.89938766609e-18
1.39736698213e-17
3.34827896806e-18
1.9528228833e-17
5.8036112268e-18
2.77427033314e-17
9.8664496407e-18
3.99542880701e-17
1.64758300575e-17
5.82884050574e-17
2.7159453775e-17
8.6306913782e-17
4.4505722282e-17
1.30064253282e-16
7.29120640505e-17
2.00044443873e-16
1.20076217887e-16
3.13722745108e-16
1.98639179575e-16
5.01016887084e-16
3.28792685851e-16
8.60349978573e-16
6.19372489415e-16
)
;

boundaryField
{
    inletfuel
    {
        type            fixedValue;
        value           uniform 0;
    }
    inletair
    {
        type            fixedValue;