/*--------------------------------*- C++ -*----------------------------------*\
  =========                 |
  \\      /  F ield         | OpenFOAM: The Open Source CFD Toolbox
   \\    /   O peration     | Website:  https://openfoam.org
    \\  /    A nd           | Version:  dev
     \\/     M anipulation  |
\*---------------------------------------------------------------------------*/
FoamFile
{
    version     2.0;
    format      ascii;
    class       volScalarField;
    location    "0.3";
    object      CH4;
}
// * * * * * * * * * * * * * * * * * * * * * * * * * * * * * * * * * * * * * //

dimensions      [0 0 0 0 0 0 0];

internalField   nonuniform List<scalar> 
1629
(
0.999999993653
0.999999993453
0.999999994012
0.999999184033
0.999998711335
0.999997412048
0.999946710792
0.999858230792
0.999369082856
0.997692647111
0.989428535437
0.898692477309
0.991588911725
0.968763573396
0.819101307829
0.979764854322
0.936908254251
0.748897903812
0.959872068603
0.89499136864
0.694218128205
0.929917025493
0.847407449311
0.655388486868
0.889709954986
0.799391795959
0.628468321089
0.841371490769
0.753770694123
0.607581684409
0.788843744951
0.711319137551
0.588754776919
0.736347435546
0.671955212782
0.570353167802
0.687010884655
0.635557388362
0.552087195377
0.642424450954
0.602069150976
0.533933967668
0.602977590732
0.5714452791
0.515935206888
0.568372740116
0.54357541599
0.498215642541
0.537983901671
0.518239662334
0.480927186963
0.51109723215
0.49513436273
0.464162607979
0.487040679393
0.473924317175
0.447942981853
0.46524322676
0.454292660027
0.432245303548
0.445244871672
0.435966112865
0.417041611281
0.426672268165
0.418707597252
0.402296625766
0.409206403897
0.402291910729
0.387930340774
0.392591878179
0.386530384577
0.373860399346
0.376649787585
0.37129592382
0.360047823053
0.361255821644
0.356502653711
0.3464750202
0.346301527649
0.342065171031
0.33309614204
0.331688623863
0.327899685182
0.319852061022
0.317344391805
0.313945232557
0.306703784156
0.303235551365
0.300180554982
0.293654298019
0.289357535874
0.286611375322
0.280730298743
0.275706210587
0.273238306071
0.267941120576
0.262274577215
0.260056145111
0.255283990072
0.249063870623
0.247068339037
0.242766529118
0.236080787177
0.234284765791
0.230405387658
0.22332485742
0.221707595
0.218208140103
0.210790785893
0.209333609726
0.206175520808
0.198478335406
0.197164394225
0.194312602971
0.186397796307
0.185212058166
0.182635112098
0.174564019719
0.173493161614
0.171163097651
0.162986389637
0.162018361385
0.15990979884
0.151667565096
0.150791411377
0.148881161966
0.140606861773
0.139812762541
0.138079975587
0.129803479224
0.129082838972
0.127509225745
0.119256783443
0.118602203823
0.117171989574
0.108963884102
0.108368963417
0.107068465999
0.0989185852663
0.0983777618515
0.0971950714561
0.0891129880146
0.0886215492629
0.0875465740997
0.079541792688
0.0790960184631
0.0781208141659
0.0702103751775
0.0698077153422
0.068926869856
0.0611468987483
0.0607860105667
0.0599967063049
0.0524139462881
0.0520943937516
0.0513957253918
0.0441090809549
0.043830622065
0.0432220317274
0.0363465949968
0.0361083624853
0.0355878802937
0.0292305434571
0.0290307101869
0.0285942749663
0.0228387331022
0.0226747686331
0.0223168139016
0.0172254769507
0.0170945499152
0.0168088712918
0.01243104185
0.0123301559941
0.0121101854253
0.00848276035057
0.00840859390255
0.00824703846739
0.00539752502429
0.00534641462186
0.0052352248359
0.0031540010231
0.00312162560513
0.0030513050981
0.00166890856562
0.00165034229989
0.00161007598205
0.000783282502707
0.000773335412522
0.000751771437168
0.275495233422
0.349432308102
0.410063519719
0.443568127281
0.460424165334
0.470663462194
0.475641999163
0.476117393651
0.473566904346
0.469212388372
0.463360146126
0.455979087903
0.447249671213
0.437511549196
0.427051989765
0.41605858383
0.404653956063
0.392970604158
0.381144325022
0.369224088017
0.357221147881
0.345178913527
0.333147310265
0.321118119133
0.309057383108
0.296951277275
0.284832521756
0.272753825049
0.260733773661
0.248770989992
0.236877796026
0.22507974992
0.213391410334
0.201818306129
0.190369496176
0.179064953444
0.167929080037
0.156978357179
0.146221495028
0.135664278024
0.125313015576
0.115174070544
0.105250383393
0.0955407276916
0.0860423440547
0.0767560284261
0.0676943390762
0.0588927565443
0.050419182525
0.0423720196877
0.0348614429611
0.0279855578468
0.0218179416028
0.0164111272559
0.0118043384729
0.0080228128353
0.00508127193159
0.00295421747559
0.00155463159199
0.000722102230086
2.54423410162e-08
3.59943816281e-08
2.07883792973e-08
7.97816253606e-09
2.31006962751e-09
5.37785479179e-10
1.04143990737e-10
1.70575614927e-11
2.40618971318e-12
2.95044441585e-13
3.14670026737e-14
2.91661202349e-15
2.34724011265e-16
1.64005363551e-17
9.96546102317e-19
5.28877501547e-20
2.47323527092e-21
1.03090763774e-22
3.91675138535e-24
8.67088522686e-26
3.90874004664e-06
1.44467130893e-06
4.54422372629e-07
1.1894050571e-07
2.57256554074e-08
4.72274477512e-09
7.5236701551e-10
1.05134259133e-10
1.31584314193e-11
1.47514348332e-12
1.47061480882e-13
1.29543436154e-14
1.0035983455e-15
6.82238687191e-17
4.07270284596e-18
2.14501047322e-19
1.00784002068e-20
4.28322343167e-22
1.65784758359e-23
3.87637271836e-25
0.000406281757375
3.4921592298e-05
5.10549206124e-06
8.78418252748e-07
1.4624877341e-07
2.23603616077e-08
3.11771969792e-09
3.95846557736e-10
4.64345360155e-11
4.94991320591e-12
4.73383532518e-13
4.02575364849e-14
3.0280899941e-15
2.01042321956e-16
1.18016587781e-17
6.16506161938e-19
2.90583291407e-20
1.26289781716e-21
5.02472282196e-23
1.15017627323e-24
0.0288762010287
0.000727271835963
3.84277124334e-05
4.42986453594e-06
6.42903875062e-07
9.26087372498e-08
1.24614081872e-08
1.55827968113e-09
1.80385023923e-10
1.89342581462e-11
1.77937765766e-12
1.48588061892e-13
1.09837348859e-14
7.18446405167e-16
4.17304874103e-17
2.171542501e-18
1.02997093487e-19
4.58346233639e-21
1.90758617168e-22
5.040195086e-24
0.0579995881786
0.00186209632678
9.38800540407e-05
1.17101118726e-05
1.95551202287e-06
3.16255148836e-07
4.58810106732e-08
6.059344003e-09
7.19770563878e-10
7.63055501509e-11
7.18218804036e-12
5.98325159844e-13
4.40697060474e-14
2.87429056851e-15
1.66868224468e-16
8.71712945972e-18
4.18005304326e-19
1.90480328751e-20
8.29277040174e-22
2.71499851473e-23
0.0988387566738
0.00575207069985
0.000250836206468
3.28330196316e-05
6.05257482816e-06
1.08499072639e-06
1.70310052766e-07
2.33925948083e-08
2.83447712586e-09
3.03855543662e-10
2.88122919132e-11
2.41478937748e-12
1.7892047749e-13
1.17475951225e-14
6.87604986772e-16
3.63055616261e-17
1.76643315368e-18
8.22199393229e-20
3.6801794213e-21
1.35879035489e-22
0.141925803664
0.0160306930888
0.0018176267805
0.000217539674639
2.71732571019e-05
4.09711216929e-06
6.21630417185e-07
8.53963385341e-08
1.04437824428e-08
1.13420177527e-09
1.09133504242e-10
9.28753308475e-12
6.98912972294e-13
4.66145417994e-14
2.77224037412e-15
1.48800013393e-16
7.36414854706e-18
3.48775058588e-19
1.57494983724e-20
6.11152600115e-22
0.186030590497
0.0103159674394
0.00285804007743
0.000505297265901
6.92571610435e-05
1.04126047229e-05
1.68749738667e-06
2.50878683942e-07
3.26627990774e-08
3.72463651571e-09
3.72977840447e-10
3.28406079e-11
2.54653265441e-12
1.74486109452e-13
1.06350381291e-14
5.83731050471e-16
2.94540594125e-17
1.41480164656e-18
6.36111983752e-20
2.46803221512e-21
0.229623916756
0.044746523482
0.00429560946489
0.000665760330325
0.000106814620628
1.84842961323e-05
3.41586387705e-06
5.80521502355e-07
8.44994876826e-08
1.05136653904e-08
1.1276901764e-09
1.04964436105e-10
8.52357388604e-12
6.07363657631e-13
3.8283241376e-14
2.16174961868e-15
1.11507184441e-16
5.42267194395e-18
2.4096395781e-19
9.05322904596e-21
0.263805415706
0.0751466210194
0.00750289522707
0.000770313297347
0.000140698695642
2.83093073474e-05
5.96109369057e-06
1.15687698925e-06
1.90142373161e-07
2.61904784158e-08
3.05397866155e-09
3.04584333359e-10
2.62031918293e-11
1.96030309315e-12
1.28729490325e-13
7.51704581939e-15
3.97425285698e-16
1.95583531299e-17
8.56212032523e-19
3.06280316609e-20
0.289230708201
0.10068933744
0.0136819137338
0.00155905603581
0.000275212144939
5.18811593839e-05
1.08394591527e-05
2.23233341567e-06
4.00510370028e-07
6.02585594983e-08
7.61500472643e-09
8.15398019523e-10
7.46345812482e-11
5.8909061512e-12
4.04867374732e-13
2.45365011118e-14
1.33254529508e-15
6.63899416251e-17
2.86196191676e-18
9.67920510431e-20
0.308871007672
0.126963457407
0.00755190086471
0.00218197783043
0.000501536005916
9.87964595975e-05
2.00999340924e-05
4.22357061458e-06
8.06452436571e-07
1.3068087044e-07
1.77728694546e-08
2.03834778859e-09
1.98593510575e-10
1.65699457665e-11
1.19480189988e-12
7.53233052761e-14
4.20957361926e-15
2.12546129965e-16
9.03453149069e-18
2.88580283501e-19
0.324612145971
0.159044973212
0.0106500695106
0.00271334948865
0.000691048959178
0.000152935701045
3.30065932188e-05
7.31169853543e-06
1.50365332903e-06
2.63939615357e-07
3.87365390309e-08
4.76633332566e-09
4.9511374235e-10
4.37524296459e-11
3.31672016352e-12
2.17937695185e-13
1.25568533048e-14
6.4363213551e-16
2.70484937983e-17
8.18440138186e-19
0.336989886794
0.187276113423
0.0143250810017
0.00331708654257
0.000845269040828
0.000207803085473
4.87051402047e-05
1.15523606873e-05
2.57734170711e-06
4.93432235883e-07
7.85875610617e-08
1.04170248238e-08
1.15734088741e-09
1.08603613154e-10
8.67578397993e-12
5.95485254111e-13
3.54500105738e-14
1.84917039009e-15
7.71220013948e-17
2.22369451624e-18
0.345596978261
0.207138056074
0.0197549207098
0.00439523835893
0.00113971875888
0.000299387015639
7.22608354914e-05
1.76410961931e-05
4.17710754158e-06
8.65250527107e-07
1.49365073416e-07
2.1355563584e-08
2.54282218134e-09
2.53961036037e-10
2.14280524883e-11
1.53985837078e-12
9.49547656017e-14
5.05591485311e-15
2.10232406982e-16
5.82217475696e-18
0.35088017324
0.224215349956
0.0613928565378
0.00298404881592
0.00130155682469
0.000403670759763
0.000103766801224
2.59814127456e-05
6.443882571e-06
1.43314920414e-06
2.67478750327e-07
4.12490955124e-08
5.26979084677e-09
5.61102575682e-10
5.01039105271e-11
3.77810406378e-12
2.41967951111e-13
1.31959251534e-14
5.49866565674e-16
1.4759852389e-17
0.35345617924
0.238426524922
0.0960117390958
0.00575429108188
0.00156795755925
0.00049158662475
0.000134932930772
3.55460872323e-05
9.32416374469e-06
2.23238663323e-06
4.51440070392e-07
7.52427169029e-08
1.03324404576e-08
1.17494129161e-09
1.11244337192e-10
8.82101812064e-12
5.88324754262e-13
3.29789608577e-14
1.38444037767e-15
3.63692956037e-17
0.353766024175
0.249736478837
0.123786379229
0.00898832354433
0.00197136023227
0.000571493926612
0.000164058673359
4.57918740208e-05
1.27645885881e-05
3.29123817287e-06
7.21845592707e-07
1.30228732523e-07
1.92506145784e-08
2.3411865357e-09
2.35396714663e-10
1.96651628365e-11
1.36930711424e-12
7.91694187561e-14
3.36574073174e-15
8.73806970719e-17
0.352048000185
0.257753849372
0.143643045758
0.0113423978402
0.0026393601016
0.000691073103592
0.000203198553712
5.89477138899e-05
1.71556235693e-05
4.70194313142e-06
1.11041509367e-06
2.16124577805e-07
3.43431217112e-08
4.46545824105e-09
4.77006225551e-10
4.20325058514e-11
3.06178563376e-12
1.83152891558e-13
7.92402233984e-15
2.05243549935e-16
0.348464531939
0.262249082166
0.155310572871
0.0140138938235
0.00360781284691
0.000962726627548
0.000284998716085
8.15519329597e-05
2.3633270329e-05
6.68294697695e-06
1.67199892843e-06
3.48075870974e-07
5.91820015844e-08
8.20734863269e-09
9.30581567102e-10
8.65152604771e-11
6.60190438243e-12
4.09651038019e-13
1.81161429741e-14
4.72335234968e-16
0.343317442599
0.263964450859
0.163118074061
0.0253298859917
0.00184807526982
0.00103709154213
0.000370707714573
0.000111792519861
3.25386244288e-05
9.39255630803e-06
2.46589820719e-06
5.45794777014e-07
9.89226165758e-08
1.45980051149e-08
1.75484688743e-09
1.72115298759e-10
1.37726872081e-11
8.88411201102e-13
4.03171198721e-14
1.0668597294e-15
0.337032536341
0.264144573434
0.171223221518
0.0521661972909
0.00349057595837
0.00119575400179
0.000439298558843
0.000140901458386
4.25693925941e-05
1.27209124621e-05
3.51673166874e-06
8.28511187983e-07
1.60122799746e-07
2.51423009592e-08
3.20432519699e-09
3.31693009741e-10
2.78638240783e-11
1.8722839166e-12
8.7504172046e-14
2.36783097644e-15
0.329879037153
0.263189435065
0.178864528006
0.0773543457515
0.0058740246594
0.00152519715791
0.000512030674756
0.000170661169395
5.37434431143e-05
1.66759587108e-05
4.85191351501e-06
1.21665936595e-06
2.50881233098e-07
4.19415552969e-08
5.67064734971e-09
6.20041159416e-10
5.4752305629e-11
3.84015092519e-12
1.85455720235e-13
5.16707444197e-15
0.321997800066
0.261021784613
0.184292376497
0.0934093423014
0.00765694874414
0.00205429057444
0.000652956164985
0.000219338579632
6.96519184187e-05
2.18589031037e-05
6.58457991402e-06
1.74312201671e-06
3.82175935752e-07
6.79376372585e-08
9.74260133461e-09
1.12586457523e-09
1.04630298766e-10
7.67420266047e-12
3.8414230689e-13
1.10879598112e-14
0.313540934533
0.25773133842
0.187338333001
0.103109294933
0.00934693429883
0.000783415784122
0.000652487659706
0.000265949420955
8.93646536487e-05
2.84587057914e-05
8.79869697857e-06
2.44233509812e-06
5.67321237918e-07
1.07062259516e-07
1.62760944565e-08
1.98842008744e-09
1.94665744898e-10
1.49559576199e-11
7.78093174647e-13
2.33937606742e-14
0.304660159727
0.253549825078
0.18865730021
0.109911410414
0.01502177157
0.00100430178952
0.000658520888291
0.000299074972362
0.000107750869498
3.55675778349e-05
1.13796975016e-05
3.31846465612e-06
8.17486159585e-07
1.63915411265e-07
2.64373039471e-08
3.41742368427e-09
3.52848120472e-10
2.84415492207e-11
1.54172534359e-12
4.85111020483e-14
0.295408786516
0.248542062315
0.1885510962
0.115086714371
0.0259569737656
0.00197809008405
0.000732516265826
0.000328515175731
0.000124190777705
4.27106257318e-05
1.42158010157e-05
4.36316722685e-06
1.14162889672e-06
2.43617777519e-07
4.17470708807e-08
5.7174030329e-09
6.23402952984e-10
5.28019839885e-11
2.98892215102e-12
9.88324327527e-14
0.285800034052
0.242757930697
0.187272564308
0.119297088374
0.0386233553176
0.00316422628381
0.00092349626588
0.000369716016617
0.000142880616573
5.08035204521e-05
1.74731945461e-05
5.61262635086e-06
1.5551286237e-06
3.52843772838e-07
6.42441171129e-08
9.32643071504e-09
1.07478760456e-09
9.57698164065e-11
5.67158403889e-12
1.97759786739e-13
0.275867695574
0.236292661442
0.18499242403
0.122338668761
0.0492620717131
0.00423690439679
0.00122497597163
0.000448504854771
0.000172430379405
6.1966064001e-05
2.15947611262e-05
7.16083706055e-06
2.08485475983e-06
5.00975309589e-07
9.67317708752e-08
1.48734403525e-08
1.81143039769e-09
1.69893690122e-10
1.05395848836e-11
3.88589002931e-13
0.265701344531
0.22933100349
0.181969705101
0.124264021324
0.0573940329539
0.00537573997028
0.000474754631818
0.00043837372718
0.000199277224499
7.51218120101e-05
2.65928281229e-05
9.04412429002e-06
2.75198374154e-06
6.98194015935e-07
1.42727682409e-07
2.32235850809e-08
2.98813193644e-09
2.95042823681e-10
1.91903905242e-11
7.49704508914e-13
0.255404942276
0.222055354798
0.178447306826
0.125332281842
0.0637113208655
0.0073856614078
0.000537115176204
0.000425262622925
0.000217647216428
8.73260428283e-05
3.18731575827e-05
1.11664916419e-05
3.55180535166e-06
9.51450061123e-07
2.05972280662e-07
3.54756390411e-08
4.82375566566e-09
5.01628418854e-10
3.42363726879e-11
1.41959328549e-12
0.245013531096
0.214476928292
0.17434042486
0.125298686612
0.0679786512904
0.010585973929
0.000856062517771
0.000430209165874
0.000232486714652
9.87240876126e-05
3.73246562487e-05
1.34853210793e-05
4.47887731023e-06
1.26625042292e-06
2.90379615463e-07
5.29702578567e-08
7.61597518587e-09
8.34643560659e-10
5.98236138069e-11
2.63659149733e-12
0.234525921485
0.20655597833
0.169542892019
0.12404642257
0.0704158579856
0.0140394749009
0.00121716816486
0.000446241990492
0.000249021184154
0.00011161297467
4.35707469231e-05
1.61238598108e-05
5.55693504255e-06
1.65214469211e-06
4.00720101869e-07
7.73796878571e-08
1.17639813074e-08
1.35904747346e-09
1.02359689566e-10
4.80057781283e-12
0.223962416043
0.198325629673
0.164135353869
0.121820728905
0.0716151437962
0.0175732368094
0.00155053616055
0.000134713696782
0.000230828034134
0.00012189347244
5.02701915635e-05
1.90806933857e-05
6.79415824765e-06
2.11694134099e-06
5.4204837017e-07
1.10699968999e-07
1.77884580937e-08
2.16624186522e-09
1.71497281798e-10
8.56627694578e-12
0.21336754762
0.189878981227
0.158317799338
0.119046724641
0.0723834837793
0.0218745654792
0.0020180015608
0.000125025903566
0.000211590253478
0.000128351590093
5.64429300804e-05
2.21177203703e-05
8.14032518943e-06
2.65557555806e-06
7.17529025259e-07
1.54974496358e-07
2.63242525994e-08
3.37973344965e-09
2.81335402089e-10
1.49783355479e-11
0.202771262014
0.181271491738
0.152183192206
0.115835969787
0.0726468897494
0.0257377850315
0.00280417270661
0.000194859045469
0.000195642689193
0.000132074631601
6.18323681859e-05
2.50877891763e-05
9.54527806967e-06
3.25723888536e-06
9.28483313744e-07
2.12144314585e-07
3.81079412083e-08
5.16021152023e-09
4.51836106712e-10
2.5660896661e-11
0.192189012305
0.172524495924
0.145745352219
0.112144403738
0.0721744467614
0.0285518047047
0.00358454319738
0.000286914647485
0.000180428184794
0.000133910490488
6.67765467748e-05
2.80768352554e-05
1.1016715931e-05
3.92092439583e-06
1.17719423478e-06
2.84371690122e-07
5.40147015649e-08
7.71470120122e-09
7.10731946643e-10
4.30877593415e-11
0.181636925344
0.16365600547
0.139009670828
0.107935889998
0.07086463008
0.0301774389651
0.00428528915698
0.000373595033345
0.000143518235842
0.000131975830716
7.14073442464e-05
3.122077534e-05
1.25910580605e-05
4.65356698148e-06
1.467470778e-06
3.74238738484e-07
7.51056711196e-08
1.13093860569e-08
1.09610792218e-09
7.09680347997e-11
0.171142648817
0.154702542442
0.132018992348
0.103264221969
0.0688267019611
0.0308781914264
0.00493306742982
0.000448049027635
4.03809936375e-05
0.000118571884521
7.44985201897e-05
3.43496556757e-05
1.42437912358e-05
5.44907026652e-06
1.8003397437e-06
4.84040914787e-07
1.02557213832e-07
1.62729390248e-08
1.65891027906e-09
1.14749654357e-10
0.160739291918
0.14571142174
0.124841470932
0.0982397165897
0.0662692954993
0.0310194581757
0.00562848596127
0.00053184842216
3.25991895315e-05
0.000104355179156
7.58503286918e-05
3.71743283805e-05
1.58876693229e-05
6.28075004862e-06
2.17058529477e-06
6.14775012288e-07
1.37477129286e-07
2.29819842721e-08
2.46427659709e-09
1.82201274857e-10
0.150450014243
0.136714536721
0.117521217406
0.0929291690062
0.0632974509399
0.030698662976
0.00632000753995
0.000621813603091
4.10968450311e-05
8.97330945827e-05
7.56292120076e-05
3.95908834548e-05
1.74688874333e-05
7.12404187629e-06
2.57060780053e-06
7.66360598367e-07
1.80838431379e-07
3.18488602401e-08
3.59252101616e-09
2.84101555491e-10
0.140289260395
0.127733305633
0.110088369711
0.0873762173225
0.0599720993842
0.0299675878981
0.00693008033844
0.000708072353624
5.21749309578e-05
7.30343692635e-05
7.37605538381e-05
4.15998731653e-05
1.89906228139e-05
7.97153006805e-06
2.99555984116e-06
9.38717774894e-07
2.33608877047e-07
4.33338473412e-08
5.14217852975e-09
4.35205027378e-10
0.130268976668
0.118788755229
0.10257456019
0.0816253432427
0.0563496176447
0.0288712409545
0.00739657288692
0.000782614114724
6.2265555446e-05
4.92312801207e-05
6.9445739474e-05
4.31191309415e-05
2.04664547903e-05
8.82466484075e-06
3.44277438571e-06
1.13193518507e-06
2.9680578971e-07
5.79584145571e-08
7.2343280954e-09
6.5555519399e-10
0.120402319592
0.109905183332
0.0950163267431
0.075725184367
0.0524849611033
0.0274427939258
0.00764812156607
0.000864268098742
7.13846545398e-05
1.57962310713e-05
6.13824412458e-05
4.38480232687e-05
2.1858967182e-05
9.67568679197e-06
3.90695357946e-06
1.3451056319e-06
3.71256869752e-07
7.62737056308e-08
1.0012969558e-08
9.71839195269e-10
0.110702480997
0.101107047466
0.0874500980821
0.0697232448993
0.0484307509868
0.025718657016
0.0076451532533
0.000956780649609
8.27732112124e-05
6.78642493203e-06
5.23680749668e-05
4.36986336165e-05
2.30978055385e-05
1.05030833065e-05
4.3776855955e-06
1.57524029205e-06
4.57242953641e-07
9.87863106976e-08
1.36386338303e-08
1.41838499828e-09
0.101178140294
0.0924122680221
0.0799038115174
0.0636581816298
0.0442354923777
0.0237526328453
0.00741474555838
0.0010226093571
9.32969907509e-05
6.51869662897e-06
4.32881457736e-05
4.2678197066e-05
2.41313138856e-05
1.1287765374e-05
4.84376084164e-06
1.81794671066e-06
5.54448553582e-07
1.25909488367e-07
1.82812157027e-08
2.03797726223e-09
0.0918331117662
0.0838332744495
0.0724007168531
0.0575672012142
0.0399515775569
0.0216126013772
0.00703016494478
0.00104876836053
0.000100572387259
7.22463465338e-06
3.41644762492e-05
4.07634264421e-05
2.49288443556e-05
1.20231814245e-05
5.29804509586e-06
2.06897598877e-06
6.62237429982e-07
1.57978688274e-07
2.41196143182e-08
2.88309543973e-09
0.0826700412261
0.0753830386942
0.0649676977999
0.0514936291787
0.0356334271186
0.0193507381833
0.00648641659079
0.00102852171467
0.000103161009907
7.66478083788e-06
2.47880822704e-05
3.78608289531e-05
2.54464695822e-05
1.27086618584e-05
5.73726894806e-06
2.32468209674e-06
7.79805597275e-07
1.95268794468e-07
3.13433485082e-08
4.01727707726e-09
0.0736962425555
0.0670819516375
0.057642188358
0.045491737147
0.0313417009359
0.0170246473128
0.00582121463859
0.000963629116175
0.000100622281992
7.5777800752e-06
1.48803913785e-05
3.38284067587e-05
2.55984691713e-05
1.33374598413e-05
6.15889106644e-06
2.58135634567e-06
9.06012801771e-07
2.37943263387e-07
4.01430845019e-08
5.51491675204e-09
0.064931910848
0.0589651928236
0.0504769141811
0.0396271312219
0.0271414580766
0.0146945937114
0.00508049745925
0.000860770671447
9.33578819244e-05
7.05650919475e-06
6.78815642817e-06
2.88943767777e-05
2.52870541518e-05
1.38924197547e-05
6.55926308903e-06
2.83471919467e-06
1.03915112841e-06
2.85958364902e-07
5.06867223354e-08
7.45787326488e-09
0.0564200926832
0.0510894726396
0.0435414262143
0.0339730391084
0.0230972575259
0.0124184516142
0.00430892435143
0.000729153518601
8.19662073934e-05
6.35936059866e-06
3.2139079648e-06
2.38243736714e-05
2.44691911433e-05
1.43523949685e-05
6.93495200299e-06
3.0804315526e-06
1.17696837338e-06
3.39000923851e-07
6.30916146607e-08
9.92892880053e-09
0.0482338146269
0.0435351551513
0.0369184199672
0.0286035059056
0.0192675030177
0.0102460265018
0.00354305897438
0.000578743807746
6.73908222e-05
5.94078294318e-06
2.18783970595e-06
1.91289248338e-05
2.31481634733e-05
1.46934436082e-05
7.28403832734e-06
3.31488514258e-06
1.31685602324e-06
3.96470517342e-07
7.73993513077e-08
1.30028265331e-08
0.0404716487652
0.0363976291211
0.0306923932114
0.0235834338511
0.0156976810568
0.00821329800305
0.00281203007709
0.000451572866758
5.40228989878e-05
5.48538438192e-06
1.88661278325e-06
1.4994093959e-05
2.13622804354e-05
1.48829082827e-05
7.60497606405e-06
3.53529655113e-06
1.45590252201e-06
4.57442247402e-07
9.3547792292e-08
1.67360513723e-08
0.0332388494518
0.029769951381
0.024937733148
0.018966303352
0.0124279600126
0.00635881094661
0.00215151957417
0.000361870208068
4.70356161648e-05
5.37356200456e-06
1.74704110836e-06
1.15183683316e-05
1.92020072535e-05
1.48786798031e-05
7.89573259547e-06
3.73968545556e-06
1.59089385548e-06
5.2060636405e-07
1.11338471721e-07
2.11560927494e-08
0.0266271247119
0.0237309478374
0.0197184728306
0.0148055704561
0.00951144089519
0.00473930193241
0.00159708952557
0.00028990016542
4.19370380989e-05
5.35728371313e-06
1.63596645198e-06
8.69973702136e-06
1.67985368915e-05
1.46320232924e-05
8.15222158828e-06
3.9267191182e-06
1.71832107956e-06
5.84219676499e-07
1.30415092447e-07
2.62561475824e-08
0.0207057619053
0.0183423464822
0.0150894965471
0.011152998075
0.00699887154198
0.00339304065564
0.00114782234639
0.000225267440183
3.62115367841e-05
5.16792274081e-06
1.51827322194e-06
6.52227246084e-06
1.4307766789e-05
1.40963580949e-05
8.36173961507e-06
4.09407341449e-06
1.83404346583e-06
6.45985875187e-07
1.50242194038e-07
3.19951805384e-08
0.0155255477624
0.0136519679167
0.0110956637267
0.00804952245958
0.00492058685811
0.00232363773573
0.0007759755062
0.000165213476372
2.94473863447e-05
4.69227147624e-06
1.37952714074e-06
4.88430369739e-06
1.19400523276e-05
1.32585666007e-05
8.50035200951e-06
4.23786178479e-06
1.9333779576e-06
7.03081113128e-07
1.70131069347e-07
3.83119234275e-08
0.0111245378661
0.00969497478002
0.00776681285452
0.00551444977629
0.003276053768
0.00150388340594
0.000454044959476
0.000106627172484
2.12422024696e-05
3.81525499561e-06
1.2019519072e-06
3.70112952329e-06
9.8526333493e-06
1.21544818506e-05
8.53520044334e-06
4.35343182141e-06
2.01176012147e-06
7.52416906384e-07
1.89322165921e-07
4.51429199269e-08
0.00752555385364
0.00648823164726
0.00510993305863
0.00354045966992
0.00204361919485
0.000918961748557
0.00026997142301
6.81401754859e-05
1.48697897191e-05
2.97034376209e-06
1.0302323377e-06
2.88640990504e-06
8.12135787171e-06
1.08639471213e-05
8.42972017131e-06
4.435281768e-06
2.06533410072e-06
7.91012427797e-07
2.07109447156e-07
5.24440476452e-08
0.00474086801059
0.00403819799481
0.00312221024263
0.00211069599951
0.00118501613057
0.000502044718302
0.000156485803359
4.25211182932e-05
1.01328743786e-05
2.2440467894e-06
8.7985967011e-07
2.33561252937e-06
6.71521431723e-06
9.50972956972e-06
8.15793042243e-06
4.47804606853e-06
2.09178641006e-06
8.16401314215e-07
2.22934821793e-07
6.01886485655e-08
0.00274031763538
0.00230436470364
0.0017483498184
0.00115298079371
0.000622069033458
0.000241520299088
8.19887149282e-05
2.43681312686e-05
6.40455526287e-06
1.59323009781e-06
7.42640707134e-07
1.95260539335e-06
5.57274094177e-06
8.1993773724e-06
7.71943396764e-06
4.47883996673e-06
2.09150363436e-06
8.27149430432e-07
2.36466696227e-07
6.83443525467e-08
0.0014328758735
0.00118734193247
0.000878551421312
0.000550467580742
0.000260479505246
0.000108412443967
3.98396957548e-05
1.29153007326e-05
3.74526558084e-06
1.0614297289e-06
6.20253694883e-07
1.66880902168e-06
4.63940052332e-06
7.00845178614e-06
7.1297834502e-06
4.435326189e-06
2.06724880231e-06
8.22646373758e-07
2.4738952602e-07
7.67916357607e-08
0.000657012771865
0.000526074046109
0.000362920905606
0.000202662305946
0.000101564551379
4.53788920639e-05
1.8040263643e-05
6.39232871015e-06
2.05112754455e-06
6.75272905188e-07
5.06353996266e-07
1.40540333917e-06
3.84177236088e-06
5.95246623694e-06
6.43207082517e-06
4.34280984283e-06
2.01598780625e-06
8.01577328394e-07
2.55003101032e-07
8.51585967739e-08
2.17335921019e-23
4.0270676354e-23
2.82042316443e-23
4.55413047054e-23
7.28948224184e-23
8.49576200335e-23
2.46360538815e-22
2.13076961969e-22
8.01075880375e-22
5.17729613028e-22
2.42689606419e-21
1.25713585446e-21
6.93666855563e-21
3.03902902703e-21
1.89213637343e-20
7.29543962935e-21
4.97158554084e-20
1.73881470989e-20
1.26877940992e-19
4.12084474084e-20
3.16613833445e-19
9.72755014292e-20
7.76175327308e-19
2.28973346298e-19
1.87499123473e-18
5.37662225309e-19
4.4720302177e-18
1.25941007044e-18
1.05448904124e-17
2.94208367773e-18
2.46032485152e-17
6.85221045459e-18
5.68339958158e-17
1.5904881727e-17
1.30022442156e-16
3.67751202639e-17
2.94574286598e-16
8.46517632526e-17
6.60506103774e-16
1.93877974886e-16
1.46455795298e-15
4.41025779349e-16
3.20815991207e-15
9.94202476681e-16
6.93462048489e-15
2.21723495617e-15
1.47743666351e-14
4.88432047875e-15
3.09922820176e-14
1.06138170248e-14
6.39392985982e-14
2.27332828649e-14
1.29633978144e-13
4.79040376795e-14
2.58067110021e-13
9.91663574573e-14
5.03991443499e-13
2.01414497639e-13
9.64868591534e-13
4.00964554877e-13
1.8099577342e-12
7.8181526458e-13
3.32598085235e-12
1.49247011732e-12
5.98677789587e-12
2.78891353536e-12
1.05585073784e-11
5.10212575153e-12
1.82571478685e-11
9.1425381605e-12
3.09742859462e-11
1.6056842238e-11
5.1580794082e-11
2.76528953995e-11
8.4327883476e-11
4.6712449531e-11
1.35398763296e-10
7.742643922e-11
2.13663500657e-10
1.25996500681e-10
3.31607763578e-10
2.01418305596e-10
5.06333846206e-10
3.16411121413e-10
7.60605923591e-10
4.88446083276e-10
1.1240158522e-09
7.40847612701e-10
1.63412658693e-09
1.10383951722e-09
2.33696783536e-09
1.61515074927e-09
3.28599748501e-09
2.31952327801e-09
4.53915348673e-09
3.26673696299e-09
6.15410722342e-09
4.50813566033e-09
8.18289913579e-09
6.09279996212e-09
1.06664344365e-08
8.06367054011e-09
1.36323708978e-08
1.04564111773e-08
1.70959471125e-08
1.33001548395e-08
2.10681246109e-08
1.66235864701e-08
2.55601761593e-08
2.04550709961e-08
3.05813736846e-08
2.48118535211e-08
3.61265734401e-08
2.968617249e-08
4.21421346118e-08
3.50064548224e-08
4.84609371168e-08
4.05562726691e-08
5.52720402803e-08
4.69156412016e-08
)
;

boundaryField
{
    inletfuel
    {
        type            fixedValue;
        value           uniform 1;
    }
    inletair
    {
        type            fixedValue;
        value           uniform 0;
    }
    outlet
    {
        type            zeroGradient;
    }
    axis
    {
        type            empty;
    }
    leftside
    {
        type            zeroGradient;
    }
    burnerwall
    {
        type            zeroGradient;
    }
    front
    {
        type            wedge;
    }
    back
    {
        type            wedge;
    }
}


// ************************************************************************* //
