/*--------------------------------*- C++ -*----------------------------------*\
  =========                 |
  \\      /  F ield         | OpenFOAM: The Open Source CFD Toolbox
   \\    /   O peration     | Website:  https://openfoam.org
    \\  /    A nd           | Version:  dev
     \\/     M anipulation  |
\*---------------------------------------------------------------------------*/
FoamFile
{
    version     2.0;
    format      ascii;
    class       volScalarField;
    location    "0.3";
    object      CO;
}
// * * * * * * * * * * * * * * * * * * * * * * * * * * * * * * * * * * * * * //

dimensions      [0 0 0 0 0 0 0];

internalField   nonuniform List<scalar> 
1629
(
6.25121378563e-18
5.96312921638e-18
4.85564050281e-18
8.60117013283e-16
1.18308809642e-15
2.04947040092e-15
6.3990828537e-14
1.35691821024e-13
4.95514704314e-13
3.54547815946e-12
1.13086533082e-11
7.93165180687e-11
1.36508505214e-10
4.55436266013e-10
2.58608278575e-09
5.19430919653e-09
1.88622871649e-08
9.68920011734e-08
1.52181902269e-07
5.61314515306e-07
2.60290761571e-06
2.68364689295e-06
9.4689581278e-06
4.10637254518e-05
1.28523623677e-05
3.53637219892e-05
0.000115145864951
3.79297862301e-05
8.29107362303e-05
0.000212636443531
8.4266399193e-05
0.000152071115543
0.000321528858208
0.000155759625993
0.000242646962354
0.000442617862655
0.000260163482811
0.000367686756943
0.000613570152214
0.000422934114609
0.000568036461771
0.00091677809258
0.000688908398514
0.000898595400152
0.0014174405817
0.00109891518617
0.00138958402024
0.00209890193775
0.00167019836841
0.00203843274598
0.00290962342464
0.00240083791017
0.0028319678567
0.0038235165329
0.00328507106934
0.00376467627454
0.00484690078211
0.00432270207762
0.00484154980919
0.00599976576824
0.00551535754856
0.00606639806498
0.00728777820381
0.00685806020053
0.00743174780385
0.00869443519537
0.00834005181985
0.00892492786466
0.0102033199667
0.00994975582638
0.0105355168288
0.0118087890993
0.0116763001683
0.0122549109435
0.0135080428901
0.0135083720445
0.0140730944254
0.0152931304205
0.015433752927
0.0159784338556
0.0171528831018
0.0174393856474
0.0179588217786
0.0190772647408
0.0195137423507
0.0200048064616
0.0210616953103
0.0216480337015
0.022109745873
0.0231040513714
0.0238349388589
0.0242673213004
0.0251995092875
0.0260661619316
0.026469250831
0.0273392209394
0.0283279440861
0.0287013293443
0.02950785825
0.030600295584
0.0309434404103
0.031685174762
0.0328648117657
0.0331780185216
0.0338556467197
0.0351135298544
0.0353985998485
0.0360161420752
0.0373482018636
0.0376079820236
0.0381716172644
0.0395720703532
0.0398094089759
0.0403251372943
0.0417817248118
0.0419986729212
0.0424706639289
0.0439653279984
0.0441630407439
0.0445935393729
0.0461074220994
0.046286666809
0.0466771754644
0.0481958793727
0.0483576574609
0.0487103022859
0.0502279280984
0.0503738542284
0.0506921641954
0.0522120037985
0.052344246695
0.0526329630471
0.0541639215256
0.0542847625051
0.0545488318431
0.0560995742124
0.0562108855845
0.056454315445
0.0580277618759
0.058130667223
0.0583558072049
0.0599460996219
0.060040914074
0.0602483536024
0.0618403405822
0.0619267216538
0.06211563745
0.0636850329184
0.0637622067799
0.0639308639522
0.0654431081162
0.0655100998623
0.0656563573322
0.067064423088
0.0671203118866
0.0672421801893
0.0684860956221
0.0685302557668
0.0686264091111
0.0696402094265
0.0696724643539
0.0697425502978
0.0704739401888
0.0704947178359
0.0705396888499
0.0709729226444
0.0709833666451
0.0710057306356
0.0711694792321
0.0711712854883
0.0711747468206
0.0711160531553
0.0711106383241
0.0710982498788
0.0708030025135
0.0707895444532
0.0707593578691
0.0701709987791
0.0701473668626
0.0700946028892
0.0690377353487
0.0689990451958
0.0689127901883
0.0670762948286
0.0670142903763
0.0668761316564
0.0636168492066
0.0635132523205
0.0632823774703
4.4286673341e-10
1.05565528258e-08
3.38141025541e-07
8.75310533754e-06
0.0001473963276
0.000317184285541
0.000477466581996
0.000615406538823
0.000758443000385
0.00101195423457
0.00153157013223
0.00234944592517
0.00331553257535
0.004315397707
0.00534830163169
0.00646236798997
0.00770052297377
0.00905947839186
0.0105017090494
0.0120092464305
0.0135892702772
0.0152484127127
0.0169792736606
0.0187693705264
0.0206116922046
0.0225094822908
0.0244665565445
0.0264784910676
0.0285342076721
0.0306164254256
0.0327051846706
0.0347884425315
0.0368678113779
0.0389508065255
0.0410397413314
0.0431258131784
0.0451917703148
0.047220242601
0.0492010813296
0.0511356294924
0.0530357749825
0.0549178244865
0.0567948897477
0.0586709879872
0.0605387217391
0.062379862972
0.0641664227939
0.0658602426247
0.0674116803752
0.0687597831343
0.0698393912587
0.070601369759
0.0710357758823
0.0711783243365
0.0710795103558
0.0707151865565
0.0700180175388
0.0687879110055
0.0666762912032
0.062948356658
2.61752758831e-14
1.29827740708e-13
3.1861326029e-13
4.65428759402e-13
3.89409089985e-13
2.09154140529e-13
7.92038812875e-14
2.24720010135e-14
5.01612057108e-15
9.05717951815e-16
1.3418492567e-16
1.64749240821e-17
1.68973460094e-18
1.45857660867e-19
1.06836114364e-20
6.70876341623e-22
3.66475514998e-23
1.77269030143e-24
7.72061371368e-26
1.76886911392e-27
4.5773247102e-13
2.15381846001e-12
6.24281743852e-12
1.00791408512e-11
7.90191780099e-12
3.75621193937e-12
1.23758792859e-12
3.05647544741e-13
6.00579782077e-14
9.63634560839e-15
1.28044367298e-15
1.42406648909e-16
1.33744321223e-17
1.06973617602e-18
7.35636306502e-20
4.40257068846e-21
2.334377302e-22
1.12085249009e-23
4.84439804682e-25
1.10349060374e-26
8.67196929553e-12
2.17786426933e-11
7.32550526951e-11
1.28958077735e-10
9.36629313266e-11
3.96272359719e-11
1.15486754327e-11
2.54738547777e-12
4.52496383571e-13
6.61164009878e-14
8.06420695374e-15
8.30252673568e-16
7.28263202866e-17
5.49154360239e-18
3.596825825e-19
2.07463176773e-20
1.07546190693e-21
5.16110663828e-23
2.24084096351e-24
4.82316600439e-26
2.9408956188e-10
2.6423218078e-10
8.03316830576e-10
1.32929198866e-09
8.78330287433e-10
3.38014736585e-10
8.99566033704e-11
1.83994050359e-11
3.05152611873e-12
4.19248858991e-13
4.84343835927e-14
4.75672585608e-15
4.00711651939e-16
2.9211321036e-17
1.86223850905e-18
1.05347961831e-19
5.40704183535e-21
2.60592679019e-22
1.16066244887e-23
3.01769523757e-25
1.67659262019e-08
8.76835448406e-09
1.27686798729e-08
1.5252826501e-08
8.50302090835e-09
2.90562823789e-09
6.98493230371e-10
1.31448176417e-10
2.02262176733e-11
2.60822116881e-12
2.8606353891e-13
2.69470980833e-14
2.19693309228e-15
1.56211182899e-16
9.78219124253e-18
5.47358319988e-19
2.79991377065e-20
1.35930082265e-21
6.22167143784e-23
2.02549084198e-24
8.75911970154e-07
8.84187315538e-07
3.51061757619e-07
2.00694904016e-07
8.33751963427e-08
2.43651213339e-08
5.22708257657e-09
8.89669432618e-10
1.26034264958e-10
1.52311199997e-11
1.59001021614e-12
1.44394749535e-13
1.14665730677e-14
8.00784612876e-16
4.95900253217e-17
2.76040758757e-18
1.41265622135e-19
6.90572345701e-21
3.20383347245e-22
1.17554139206e-23
3.25879991359e-05
0.000108830214437
1.93706113992e-05
3.96103881125e-06
9.08065292242e-07
1.95010371264e-07
3.53482049602e-08
5.36517915901e-09
7.00324317027e-10
7.99308265814e-11
8.02719386747e-12
7.10792808761e-13
5.55769222119e-14
3.84899998985e-15
2.37624720968e-16
1.32390931123e-17
6.79989153648e-19
3.34011563044e-20
1.54563847113e-21
5.94422544697e-23
0.000752329666532
0.00781734901812
0.00102181980699
0.000117513697636
1.15645103395e-05
1.35823155713e-06
1.88789189801e-07
2.56695371342e-08
3.1827294903e-09
3.54623563887e-10
3.52762851497e-11
3.1194529279e-12
2.44756980973e-13
1.70593126574e-14
1.06170427492e-15
5.96654550688e-17
3.08774587702e-18
1.5216945374e-19
6.94529457137e-21
2.66087674458e-22
0.00115772320261
0.00726256867968
0.00124144440488
0.000166022109749
2.16205661403e-05
3.11938864417e-06
5.02135580454e-07
7.73185232714e-08
1.05089293912e-08
1.24948256349e-09
1.30334678692e-10
1.19551290869e-11
9.66286932859e-13
6.90522364854e-14
4.38981251224e-15
2.51057943342e-16
1.31528388924e-17
6.50309447172e-19
2.91002714542e-20
1.07519246576e-21
0.00135218499028
0.0048918023227
0.00136905936795
0.000182590195215
2.98743930649e-05
5.31543511307e-06
1.01080535132e-06
1.8116440964e-07
2.80049674987e-08
3.68414764401e-09
4.15649522276e-10
4.05449209683e-11
3.44215933731e-12
2.55986563454e-13
1.68085192016e-14
9.85889628609e-16
5.25224190053e-17
2.60784892555e-18
1.14157076203e-19
3.99854718258e-21
0.00142845798665
0.00355524057554
0.00158794686779
0.000271236451637
5.33984096083e-05
1.01568536058e-05
2.05005216329e-06
4.01884183063e-07
6.86325133333e-08
9.88973816114e-09
1.20670653174e-09
1.25781563908e-10
1.12920712885e-11
8.79988708285e-13
6.00481146546e-14
3.62955565268e-15
1.97240493189e-16
9.8462409252e-18
4.21628437543e-19
1.38985085488e-20
0.0015720078151
0.00394068959312
0.0066353022985
0.00099362185978
0.000169237786544
2.76355259441e-05
4.94673242816e-06
9.46523543577e-07
1.67890155791e-07
2.56415761257e-08
3.32642110708e-09
3.6762132016e-10
3.48135450779e-11
2.84411228735e-12
2.02026703325e-13
1.26082999157e-14
7.00056638547e-16
3.51703792803e-17
1.47509186929e-18
4.56932055305e-20
0.00213784356937
0.00740736473557
0.0339583635637
0.00341228966217
0.000461755969391
6.9681744949e-05
1.17025431567e-05
2.18926864608e-06
3.99243044755e-07
6.40429497749e-08
8.76984584673e-09
1.02251921071e-09
1.01860918634e-10
8.71451033497e-12
6.4441957663e-13
4.1551205549e-14
2.35939613724e-15
1.19425383842e-16
4.91691804253e-18
1.43480482271e-19
0.0034439513473
0.0138784471055
0.0755784106683
0.00760429163288
0.000911139419121
0.000141303315479
2.438027485e-05
4.67096788176e-06
8.9118219159e-07
1.51355043144e-07
2.19518983708e-08
2.70296674337e-09
2.83298246875e-10
2.53854690622e-11
1.95502817766e-12
1.30328322609e-13
7.57661786075e-15
3.8702544251e-16
1.56929624867e-17
4.3376589834e-19
0.00520661028272
0.0189064076031
0.076430835733
0.0124081418541
0.0018964009987
0.000321235302434
5.41553967962e-05
1.00391884516e-05
1.93564142617e-06
3.42731878321e-07
5.23455303233e-08
6.79410228907e-09
7.49017723606e-10
7.03312676574e-11
5.64607246689e-12
3.89609289661e-13
2.32284464709e-14
1.20035433778e-15
4.81393580934e-17
1.27015775701e-18
0.00676434915524
0.0194852540779
0.0475212441811
0.00828387627835
0.0025275332861
0.000559061387429
0.000104632683547
1.98240315533e-05
3.91984421305e-06
7.27602092978e-07
1.17475407746e-07
1.61218344161e-08
1.87435867856e-09
1.84855246193e-10
1.55031582676e-11
1.10989031337e-12
6.8039467479e-14
3.56887082587e-15
1.42299480533e-16
3.61740604491e-18
0.00800375397855
0.0188853893397
0.0355956918238
0.0203019064533
0.00377126388801
0.000814216587204
0.000164989998244
3.34528038366e-05
7.0371974855e-06
1.40196966584e-06
2.43230771009e-07
3.56878814832e-08
4.40850528385e-09
4.59089503891e-10
4.03885791365e-11
3.0105380128e-12
1.90451996073e-13
1.01825978598e-14
4.06037929086e-16
1.00469696041e-17
0.00915158544465
0.0191782280841
0.0369924246911
0.0708061187978
0.00778302601656
0.00122095314626
0.000241251331894
5.13977939036e-05
1.15372235639e-05
2.48235939016e-06
4.6662567789e-07
7.37895312143e-08
9.74900252109e-09
1.0775884153e-09
9.98723875357e-11
7.78086967246e-12
5.09964648948e-13
2.79175743826e-14
1.1201222044e-15
2.72633708658e-17
0.0103855803092
0.0203152542889
0.0398849998749
0.0856185376863
0.0136113866974
0.00197686712609
0.000379704841596
8.12988083974e-05
1.87559071161e-05
4.25633798925e-06
8.56764013019e-07
1.45363303671e-07
2.05212968568e-08
2.40943925951e-09
2.3565424755e-10
1.92345233304e-11
1.31009676016e-12
7.37300458895e-14
2.99347236448e-15
7.24031452682e-17
0.0117727878887
0.0218798378416
0.0418444116256
0.0830439992744
0.01973509356
0.00366574018539
0.000745297942848
0.000151681740099
3.31836605321e-05
7.50674917674e-06
1.56623486376e-06
2.80079478936e-07
4.18470995075e-08
5.19397932581e-09
5.35045849019e-10
4.57542089183e-11
3.24364452753e-12
1.8821419935e-13
7.76999003579e-15
1.88510641661e-16
0.0132445142096
0.0232561470573
0.0412805708071
0.0688346593867
0.0105024214118
0.00439312809662
0.00117347782156
0.000263269516668
5.79448664758e-05
1.31565081701e-05
2.82722462101e-06
5.28923206189e-07
8.31373687162e-08
1.08626193154e-08
1.17574428593e-09
1.05255918473e-10
7.77200911953e-12
4.65970664587e-13
1.96391678685e-14
4.8197930518e-16
0.0146993341383
0.0242006335498
0.0393122256101
0.0564528853827
0.0285117815598
0.00635590624908
0.00162555568297
0.000390444249814
9.07313798559e-05
2.14735709645e-05
4.84988453598e-06
9.59350230744e-07
1.59427946196e-07
2.1971813585e-08
2.50078089804e-09
2.34536579276e-10
1.80601451115e-11
1.12120500578e-12
4.84247357068e-14
1.21140923701e-15
0.0161373238744
0.025049932013
0.0383814234703
0.0550817730284
0.0713207942887
0.0114439010165
0.00232319624389
0.000554911682694
0.000134120260914
3.3137168614e-05
7.9002903338e-06
1.66193288758e-06
2.93534571375e-07
4.28320357005e-08
5.13975830301e-09
5.06024032874e-10
4.0719117136e-11
2.62415048772e-12
1.16572823034e-13
2.99375546072e-15
0.0176120030486
0.0260633680493
0.038594464598
0.0563693032794
0.0841607885379
0.0182227814512
0.00382346995526
0.000898268646139
0.000211982340782
5.19001162867e-05
1.26767763935e-05
2.79817313583e-06
5.22820954285e-07
8.07056750653e-08
1.02177610011e-08
1.05757045691e-09
8.91042484417e-11
5.97579952189e-12
2.74016065059e-13
7.2711392816e-15
0.0191505057168
0.0272291644972
0.0391432689862
0.0561255484147
0.0793793916044
0.00922278676119
0.00434940498644
0.00128556696645
0.000325297517415
8.03978848243e-05
1.997733548e-05
4.59063823696e-06
9.03460998278e-07
1.47286879363e-07
1.96716261162e-08
2.14243048591e-09
1.89303594162e-10
1.32417443263e-11
6.288116217e-13
1.73407998248e-14
0.0207378583145
0.0284175386573
0.0394886892961
0.0543217918175
0.0707832589387
0.0121483798004
0.00498346156341
0.00161946992578
0.00044524820255
0.000115328999863
2.97856072844e-05
7.19514872152e-06
1.49964685006e-06
2.59096227682e-07
3.65967572725e-08
4.20279757922e-09
3.90273222541e-10
2.85413766423e-11
1.40800209047e-12
4.05622898328e-14
0.022353367067
0.0295697878652
0.0396473414466
0.0523030066649
0.0647364551424
0.0343222387179
0.00745908675617
0.00205961181371
0.00057467275971
0.000155218428534
4.19642741779e-05
1.07223965108e-05
2.37992111763e-06
4.37850999044e-07
6.56529408234e-08
7.97417712398e-09
7.80225096493e-10
5.98062150278e-11
3.07420190719e-12
9.29463149905e-14
0.0239985829775
0.0307437828871
0.0399836858605
0.0515361544175
0.0648633155349
0.0660149425945
0.0132403961955
0.00290687965549
0.000767343712885
0.000208902764953
5.80147974309e-05
1.55172272407e-05
3.65252155674e-06
7.1512298038e-07
1.13932293979e-07
1.4657475069e-08
1.51375019907e-09
1.21860386387e-10
6.54333238511e-12
2.08442467172e-13
0.0256978450357
0.0320358862146
0.0407363066049
0.0520626714797
0.0673372397838
0.0835328431767
0.0213069210175
0.0046923192497
0.00116914531672
0.0003037899227
8.26571312128e-05
2.24712885738e-05
5.52226533688e-06
1.1418583184e-06
1.92622197208e-07
2.62144631034e-08
2.85747222107e-09
2.41779697997e-10
1.35836422758e-11
4.57299269276e-13
0.0274669132429
0.0334607942564
0.041758394234
0.0527769487527
0.0675833128782
0.0819523581145
0.00941674243137
0.0051012670208
0.00159058230146
0.000435329759388
0.000118218625901
3.24270131132e-05
8.24397335747e-06
1.78924110382e-06
3.18433537295e-07
4.57539428604e-08
5.259685371e-09
4.67785416525e-10
2.75232679764e-11
9.81331921998e-13
0.0292973476361
0.0349592262728
0.0428032570391
0.0530826821076
0.0659202178022
0.0759461752207
0.011993097833
0.00564725826016
0.0019546351092
0.000575021967256
0.000161240685143
4.53357512526e-05
1.19806488432e-05
2.7329011945e-06
5.13294518021e-07
7.78692057147e-08
9.44091315886e-09
8.82835724014e-10
5.44410237748e-11
2.05915894769e-12
0.0311692745141
0.0364750449047
0.0437626493827
0.0530256257725
0.0637036485376
0.0707262272386
0.0258346240782
0.00754958981859
0.00241343621432
0.000732238021951
0.000211996196311
6.13575931965e-05
1.68906037278e-05
4.05573122285e-06
8.04911794696e-07
1.2904508641e-07
1.65124960907e-08
1.62457941745e-09
1.05085127715e-10
4.22242026733e-12
0.0330605037523
0.0379824323695
0.0446641383712
0.0529335978908
0.0621025589213
0.0687236732393
0.0435238304307
0.0114678237417
0.00325651301932
0.00096898355025
0.000281489882576
8.23875596703e-05
2.3385475258e-05
5.88292288272e-06
1.23139276675e-06
2.085037458e-07
2.81564739652e-08
2.91526311098e-09
1.97911721231e-10
8.45713703847e-12
0.0349535223659
0.03948386302
0.0455910014205
0.0530870492329
0.0615380703795
0.0692268285903
0.0590922572542
0.00792870792228
0.00367324720026
0.0012327773404
0.000370551073461
0.000109666708265
3.18850400558e-05
8.36343004944e-06
1.84171379043e-06
3.28941889314e-07
4.68508211268e-08
5.10403536434e-09
3.6373953313e-10
1.65428063053e-11
0.036845915378
0.0410081469906
0.0466357726861
0.0536403191225
0.0619849667338
0.0713548686193
0.0735146788618
0.00612446950447
0.00381401690943
0.00146022802959
0.000465914037989
0.0001415495424
4.23293883042e-05
1.15847371849e-05
2.68484566105e-06
5.06000936051e-07
7.60324081185e-08
8.7174045074e-09
6.52350006672e-10
3.15995319614e-11
0.0387498259869
0.0425877151893
0.047831236456
0.0544923561273
0.0627218458509
0.0724144754819
0.0769217981801
0.00890073169317
0.00421942223512
0.0016827394752
0.0005639164684
0.000176695671536
5.45080193935e-05
1.55836942178e-05
3.80549468772e-06
7.57693873924e-07
1.20228640963e-07
1.45174125575e-08
1.14142260431e-09
5.89388575954e-11
0.0406769398313
0.0442320167228
0.0491437790179
0.0554620684029
0.0632953260218
0.0721790107297
0.0755043447161
0.0154412658067
0.00534550507533
0.00198343579811
0.000676878730172
0.000217014446652
6.87362969957e-05
2.04648891764e-05
5.25946072536e-06
1.10621178193e-06
1.85416025179e-07
2.35870012798e-08
1.94927257422e-09
1.07382361794e-10
0.0426264690293
0.045923831017
0.0505125718617
0.0564246394412
0.0636339481425
0.0713346535743
0.0733803745956
0.0239018915095
0.00740595146089
0.00247834530549
0.000830717315444
0.000267607311798
8.59726354082e-05
2.644915944e-05
7.1254411278e-06
1.58031758279e-06
2.79571401766e-07
3.74533235482e-08
3.25324912999e-09
1.91298418736e-10
0.0445829298283
0.0476301436301
0.0518809153272
0.0573258463173
0.0638153824752
0.0703781938146
0.0716851629237
0.0322419063502
0.00564105335064
0.00274268358647
0.000998320683657
0.00032843243666
0.000106664344092
3.3701555191e-05
9.48050476636e-06
2.21283169127e-06
4.1276340423e-07
5.81991429048e-08
5.31235136651e-09
3.3356498974e-10
0.0465235701523
0.0493191368108
0.0532162270797
0.0581685438874
0.0639560460592
0.0696007078629
0.070762028188
0.0409281354677
0.00383581016309
0.00275780072338
0.00114428880177
0.000393698580214
0.000130084615693
4.21586787235e-05
1.23609956192e-05
3.03360475661e-06
5.96444145766e-07
8.84983743327e-08
8.48931472389e-09
5.69512329905e-10
0.0484299476232
0.0509756534531
0.0545214705511
0.0590045093147
0.0641936486984
0.0692166874256
0.0707207737624
0.0498465585045
0.00436202620455
0.00281780469183
0.00127657520686
0.000461043859424
0.000155602658972
5.16911756204e-05
1.57747219945e-05
4.06812126116e-06
8.43014851861e-07
1.3163993227e-07
1.32738310043e-08
9.52106223018e-10
0.0502950460538
0.0526042319654
0.0558261570783
0.0599050689325
0.0646442430597
0.0693332095068
0.0715064935643
0.0581064619001
0.00641884899514
0.00312358395449
0.00142536043403
0.000533561590136
0.000183613872931
6.23325541677e-05
1.97454635623e-05
5.3438183436e-06
1.1665615142e-06
1.91674657428e-07
2.03184731687e-08
1.55932910151e-09
0.0521252302546
0.0542241196343
0.0571692331485
0.0609288072267
0.0653597598811
0.0699078350315
0.0727921717302
0.0647877732955
0.00937432789435
0.00371445029211
0.00162492816968
0.000618205606418
0.00021548257386
7.43105499292e-05
2.43260569149e-05
6.89318450652e-06
1.58353499164e-06
2.7361404141e-07
3.04884755583e-08
2.50466363124e-09
0.0539360928287
0.0558578972286
0.0585776584641
0.0620900802418
0.0662924790365
0.0707219589396
0.0739862788041
0.06879038338
0.0124200589739
0.00368635332865
0.00180282227471
0.000713368014299
0.00025201875992
8.78224292037e-05
2.95578497676e-05
8.74571258904e-06
2.1115069389e-06
3.8339748348e-07
4.49003062253e-08
3.94994233798e-09
0.0557439817403
0.0575191903006
0.0600524789606
0.0633535667251
0.0673267423257
0.0715231272007
0.0746995925385
0.0703079997098
0.0152575530254
0.00262870880699
0.00182165423071
0.000801753798246
0.000291839767955
0.000102754045463
3.54156605699e-05
1.09144868143e-05
2.76623659907e-06
5.27513525226e-07
6.49242313641e-08
6.11870435616e-09
0.0575584502265
0.0592073924903
0.0615723221779
0.0646609157936
0.0683541335269
0.0721782317801
0.0749505425225
0.0705298529618
0.017927607638
0.00202586144528
0.00174269515438
0.000873775585083
0.000333147466803
0.000118847098466
4.18272701029e-05
1.33951376012e-05
3.56010712138e-06
7.12632290727e-07
9.2172547646e-08
9.31054777753e-09
0.0593780301235
0.0609082606495
0.063103077373
0.0659531908786
0.0693006205946
0.0726458816147
0.0748479831047
0.0701196191026
0.0203267433301
0.00197472585044
0.00165397210211
0.000929838960017
0.00037514028961
0.000135996215972
4.87371050951e-05
1.61772408206e-05
4.50324223448e-06
9.45613589316e-07
1.28522114589e-07
1.39201714258e-08
0.0611899013544
0.0625978888955
0.0646073285735
0.067183629157
0.0701313017942
0.0729486081099
0.0745458088869
0.0693983323089
0.0222711847279
0.00220805355874
0.0016010236702
0.000974564984502
0.000417884312396
0.000154313629932
5.61320261075e-05
1.92506449942e-05
5.60439167792e-06
1.23358906847e-06
1.76157334995e-07
2.04614130227e-08
0.0629717387092
0.0642466029932
0.0660491118734
0.0683184010309
0.0708348694272
0.0731206120911
0.0741305780337
0.0684887585117
0.0235955987267
0.00254156619257
0.00156831977235
0.00100966837844
0.000461361550946
0.000173997808558
6.40217614212e-05
2.2600741178e-05
6.86923251842e-06
1.5835585349e-06
2.3755039197e-07
2.95879228353e-08
0.0646931041387
0.0658204459653
0.0673940265288
0.0693319409869
0.0714085399105
0.0731843358873
0.0736284821942
0.0673847535214
0.0242641942223
0.00287241288745
0.00145759876833
0.0010223448627
0.000503663570959
0.000195109561803
7.24104092829e-05
2.62021673759e-05
8.29754818088e-06
2.00152785701e-06
3.15336653751e-07
4.20998528099e-08
0.0663149938295
0.0672804067696
0.0686073694383
0.0702020661496
0.0718482637016
0.0731424386889
0.0730190049619
0.0660138250967
0.0242756081366
0.00313974431347
0.00124716222302
0.000995709769795
0.000540457963607
0.000217461809309
8.13012041197e-05
3.00229846855e-05
9.88255308679e-06
2.49181509714e-06
4.12146420411e-07
5.89343438583e-08
0.0677886524104
0.068581274173
0.0696521059755
0.0709046444198
0.0721386755348
0.0729664181866
0.072222016229
0.0641803271136
0.0236544068987
0.00342353585799
0.00106764496384
0.000938276645157
0.00056760701293
0.000240690765055
9.07253345605e-05
3.40361295682e-05
1.16125118954e-05
3.05679054319e-06
5.30452327461e-07
8.11428363542e-08
0.0690554019556
0.0696698101492
0.0704823429259
0.0713973136904
0.072221512511
0.0725378596764
0.0709641790095
0.0611209501211
0.0223788906633
0.00360744357462
0.000961869542442
0.000869817092554
0.000582756247723
0.000264229653497
0.000100749224282
3.82261116679e-05
1.34717464636e-05
3.69653852627e-06
6.72388104753e-07
1.09856449366e-07
0.0700529784046
0.0704890598261
0.0710449888738
0.0716218255137
0.072012695055
0.0717150976792
0.0689973033872
0.056336765901
0.0206545448253
0.00366365450458
0.000907560590504
0.000804773701159
0.000585653968772
0.000287301239145
0.000111499405604
4.25984176611e-05
1.54418489104e-05
4.40836618149e-06
8.39511060077e-07
1.46240406202e-07
0.0707361046832
0.0710010884737
0.0713102508221
0.0715561259137
0.0715024677588
0.0705286546846
0.0664970317807
0.0506133964655
0.0185925226609
0.00359194946742
0.000877503783625
0.000747990085564
0.00057795319586
0.000308916171354
0.000123185762934
4.71908701056e-05
1.75033248127e-05
5.18623058421e-06
1.03256132412e-06
1.91462253123e-07
0.0710995945831
0.0712106426913
0.0712968208764
0.0712387288706
0.0707610877879
0.0691050981228
0.0637038054729
0.0445770993606
0.0163094442454
0.00340411530561
0.0008539450085
0.000697991387014
0.000562328943173
0.000327685701436
0.000135966520709
5.20556066454e-05
1.96312779029e-05
6.01878318428e-06
1.25105714863e-06
2.46671079767e-07
0.0711827602943
0.071164274396
0.0710602779363
0.0707341759203
0.0698571540301
0.06750092493
0.0606299285719
0.0385010594442
0.0139518625278
0.00312651168457
0.000827204501398
0.000652340639489
0.000540745079869
0.000341909409602
0.000149789713178
5.72460644167e-05
2.17927773149e-05
6.88750104686e-06
1.4929884322e-06
3.13036718807e-07
0.0710335154986
0.07090201871
0.0706230317463
0.0700268850954
0.068695167601
0.0654546831174
0.0566512280483
0.0325259965397
0.0116331159954
0.00278789119921
0.000792413396212
0.000608575543609
0.000514746161669
0.000350481157691
0.000164328451155
6.28317712418e-05
2.39523986642e-05
7.7671872702e-06
1.75505514076e-06
3.91868022365e-07
0.0706106711341
0.0703398534264
0.0698233462292
0.0688140521243
0.0667044467872
0.0618264807437
0.0490930027683
0.0263618683463
0.00939208170737
0.00240978113451
0.000746930381144
0.000565512123359
0.000485679824715
0.000353054903565
0.000178857854934
6.88846430508e-05
2.60744703772e-05
8.62696482207e-06
2.03327390901e-06
4.84774190287e-07
0.0698384903186
0.0693860939164
0.0685546060231
0.0669940496746
0.0638649682127
0.0569500318386
0.0403484282223
0.0204977264352
0.00733689000995
0.00202116565404
0.000691306814093
0.000523138972854
0.000455615181414
0.000349284350648
0.000192214615622
7.54739889628e-05
2.81319046498e-05
9.43304806372e-06
2.32381430601e-06
5.9378250044e-07
0.0684960715993
0.0677677787982
0.0664467418152
0.0640043751175
0.0591882778911
0.0487918546841
0.0314129447271
0.0152715849395
0.00554035528012
0.00164706745967
0.000627718902073
0.000481306184568
0.000425081530568
0.00033924789324
0.000203801630308
8.27544810983e-05
3.01290824834e-05
1.01546146077e-05
2.62409117509e-06
7.21281288891e-07
0.0662097748991
0.0650498222526
0.0629576495085
0.059124757482
0.0517119449894
0.0382132598069
0.0229377468339
0.0108360852317
0.00402960884908
0.00130335349878
0.000558114773082
0.000439324097607
0.000394192346266
0.000324909721191
0.00021238236369
9.08813910976e-05
3.21124724124e-05
1.07647974242e-05
2.93190522579e-06
8.70485014526e-07
0.0621684968169
0.0602286897977
0.0567378026196
0.0504303012774
0.0400593953204
0.0274863519738
0.015782335072
0.00740916311084
0.00286853879998
0.00101874026065
0.000488117915163
0.000397371108335
0.0003639996594
0.000309027583492
0.000217076578327
9.97921029488e-05
3.39405833907e-05
1.12039475427e-05
3.2377760925e-06
1.04392878864e-06
1.79340906831e-24
3.46188628568e-24
2.29680003414e-24
3.93623749725e-24
6.37472465095e-24
7.65649258494e-24
2.38840569964e-23
2.0839596755e-23
8.55001544355e-23
5.4893596609e-23
2.83781837304e-22
1.44682738048e-22
8.87395509031e-22
3.80209695947e-22
2.65050523487e-21
9.94369451106e-22
7.64574570873e-21
2.59034076482e-21
2.15085409649e-20
6.73846880347e-21
5.94569732895e-20
1.75494749526e-20
1.6230944392e-19
4.58227111284e-20
4.3870871178e-19
1.19969944298e-19
1.17528184462e-18
3.14694701494e-19
3.12102974968e-18
8.25976144406e-19
8.21463713755e-18
2.16630447179e-18
2.1428998222e-17
5.67099825169e-18
5.54049079667e-17
1.48046630495e-17
1.41940472403e-16
3.85069498216e-17
3.59956827385e-16
9.9696319738e-17
9.02363350628e-16
2.56327089404e-16
2.23243538098e-15
6.52553294262e-16
5.44016382554e-15
1.64092620069e-15
1.30330288478e-14
4.06652859159e-15
3.06431761928e-14
9.91187168571e-15
7.06024470636e-14
2.37329221396e-14
1.5926631414e-13
5.57032245078e-14
3.51455684605e-13
1.27959596351e-13
7.58012522107e-13
2.87326928003e-13
1.59676371798e-12
6.30033998181e-13
3.28408690756e-12
1.34826913142e-12
6.59387292975e-12
2.81505608966e-12
1.29244752791e-11
5.73401238428e-12
2.47389065444e-11
1.13970783008e-11
4.6281155203e-11
2.21195480816e-11
8.47004188452e-11
4.19533507389e-11
1.51721950475e-10
7.78084783758e-11
2.66061583958e-10
1.41157915421e-10
4.56968016656e-10
2.5060585709e-10
7.69402764477e-10
4.35722007223e-10
1.27112962008e-09
7.42538691448e-10
2.06162315531e-09
1.24095741897e-09
3.282997568e-09
2.03431526839e-09
5.13394519166e-09
3.27163648598e-09
7.887080081e-09
5.16290689629e-09
1.19073832142e-08
7.99632714829e-09
1.76672190865e-08
1.21546662596e-08
2.57545928754e-08
1.8127654313e-08
3.68735626341e-08
2.65186257026e-08
5.18383781064e-08
3.80467830575e-08
7.15628223764e-08
5.35463865385e-08
9.7057728623e-08
7.3972120591e-08
1.29438312165e-07
1.00411399241e-07
1.69974443247e-07
1.3413565333e-07
2.20152813044e-07
1.76641033242e-07
2.81640483692e-07
2.29527277139e-07
3.56348566606e-07
2.94573693747e-07
4.4605758959e-07
3.73189139451e-07
5.52557911917e-07
4.65930922604e-07
6.93543165298e-07
6.00465569825e-07
)
;

boundaryField
{
    inletfuel
    {
        type            fixedValue;
        value           uniform 0;
    }
    inletair
    {
        type            fixedValue;
        value           uniform 0;
    }
    outlet
    {
        type            zeroGradient;
    }
    axis
    {
        type            empty;
    }
    leftside
    {
        type            zeroGradient;
    }
    burnerwall
    {
        type            zeroGradient;
    }
    front
    {
        type            wedge;
    }
    back
    {
        type            wedge;
    }
}


// ************************************************************************* //
