/*--------------------------------*- C++ -*----------------------------------*\
  =========                 |
  \\      /  F ield         | OpenFOAM: The Open Source CFD Toolbox
   \\    /   O peration     | Website:  https://openfoam.org
    \\  /    A nd           | Version:  dev
     \\/     M anipulation  |
\*---------------------------------------------------------------------------*/
FoamFile
{
    version     2.0;
    format      ascii;
    class       volScalarField;
    location    "0.3";
    object      CO2;
}
// * * * * * * * * * * * * * * * * * * * * * * * * * * * * * * * * * * * * * //

dimensions      [0 0 0 0 0 0 0];

internalField   nonuniform List<scalar> 
1629
(
4.89058676711e-17
4.66718960591e-17
3.80279220013e-17
6.72713475696e-15
9.25998089551e-15
1.6053965788e-14
5.00212434582e-13
1.06190671783e-12
3.88184511063e-12
2.76892302862e-11
8.84610636685e-11
6.21393783934e-10
1.06262814063e-09
3.54942457021e-09
2.01770308616e-08
4.03201942895e-08
1.46596614606e-07
7.54007181512e-07
1.17588543921e-06
4.34285752594e-06
2.01694839979e-05
2.0534709412e-05
7.25275754027e-05
0.000314898401726
9.45164814258e-05
0.000258480868883
0.000833020942008
0.000270147472949
0.000585440029293
0.00148095838511
0.000585621651917
0.00104762386241
0.00218528269273
0.00106089338779
0.0016397771345
0.00295636736324
0.00170154149821
0.00236535456324
0.00382421535183
0.0025008976196
0.00322020084738
0.00477822577147
0.00343975270436
0.00418653231969
0.00579077329204
0.00449223784312
0.00524331690332
0.00684957591218
0.00563740729385
0.00637891332169
0.00796447632267
0.00686263532317
0.0075880114334
0.0091419433107
0.00815882988188
0.0088638723245
0.0103756885304
0.00951467572194
0.0101944153629
0.0116506041222
0.0109173195932
0.0115668719859
0.012956202597
0.0123587260376
0.0129757176176
0.0142946283926
0.013839076715
0.0144241048116
0.0156753863276
0.0153616552652
0.0159162607012
0.0171034614771
0.0169261112685
0.0174507614672
0.0185743255213
0.0185284644987
0.0190225695957
0.0200808589349
0.0201668465491
0.0206303835947
0.0216236499678
0.0218427437915
0.0222767512326
0.023207686682
0.0235563371475
0.0239619784148
0.0248331240105
0.0253016525163
0.0256792723815
0.0264910889772
0.0270678895045
0.02741722108
0.0281688937019
0.0288458675189
0.0291672104845
0.0298593877783
0.030630911564
0.0309256931096
0.031561585196
0.0324208559763
0.0326911844906
0.0332753496375
0.0342132107754
0.0344610760844
0.0349976005273
0.0360044025674
0.0362313721448
0.0367233513521
0.0377896930544
0.0379970635007
0.038447082531
0.0395639240675
0.039753016142
0.0401638138183
0.041322795017
0.0414951093089
0.0418698740868
0.0430643130383
0.0432214975457
0.0435637472955
0.0447891373034
0.044932859235
0.0452461401037
0.046498606087
0.0466303570198
0.0469178229069
0.0481922219538
0.048313168641
0.048577264014
0.0498667209133
0.0499777023029
0.050220173594
0.0515177392876
0.0516194177168
0.0518416572942
0.0531430183118
0.0532360799676
0.0534395618202
0.0547449066342
0.0548301755983
0.0550166914176
0.0563308102091
0.056409220045
0.0565808017666
0.0579116378902
0.0579841042947
0.0581427372857
0.059498936953
0.0595662130643
0.0597135209128
0.0611014523009
0.0611640393166
0.0613010960033
0.0627222057563
0.0627803719358
0.0629077535129
0.0643584437926
0.0644123970336
0.0645305681026
0.0660058407695
0.0660559912
0.0661658788196
0.0676627002237
0.0677097651751
0.0678129723428
0.0693303196182
0.0693752019638
0.0694737277457
0.0710130467021
0.0710567293963
0.0711527430466
0.0727313800261
0.0727752067691
0.0728716843126
0.0745663165206
0.0746129680017
0.0747158661919
0.0766633563461
0.0767163555563
0.0768334540413
0.0792781045272
0.0793423051921
0.0794843341067
0.0827730881193
0.082854397311
0.0830344152878
0.0875976358396
0.0877061391235
0.0879465515682
3.47396471555e-09
8.24769501211e-08
2.63606524792e-06
6.7985030984e-05
0.00113218805536
0.00225751518546
0.00326351876149
0.00411489968291
0.0050059454276
0.00601386972247
0.00705630036835
0.00808065108629
0.00910442809948
0.0101767090919
0.0113052498976
0.0124720929468
0.0136565985715
0.0148587190907
0.0160960468204
0.0173841489114
0.0187245998074
0.020107119639
0.021522985862
0.0229770228137
0.0244773160821
0.0260225078999
0.0276003016477
0.0291965928126
0.0308068248647
0.0324336491552
0.034078418055
0.0357369134868
0.037402604911
0.0390693999293
0.0407327542608
0.0423897563666
0.0440393560911
0.0456822474493
0.0473186041186
0.048945894375
0.0505588985593
0.0521523063387
0.0537241487154
0.0552777082023
0.0568210733703
0.0583650023952
0.0599199955965
0.0614932310837
0.0630863325274
0.064696270451
0.0663200808486
0.0679580043785
0.0696124487169
0.071288238025
0.0730082127885
0.0748620024905
0.0770002581354
0.0796871273493
0.0832918058563
0.0882907353458
2.09495312176e-13
1.03924905162e-12
2.55104523825e-12
3.72861139603e-12
3.12154034493e-12
1.67728121342e-12
6.3529186775e-13
1.80257011327e-13
4.02347019173e-14
7.26409090652e-15
1.07603625902e-15
1.32087586445e-16
1.35441537636e-17
1.16878582484e-18
8.55796991575e-20
5.37169756896e-21
2.93285297192e-22
1.41774068732e-23
6.17010385217e-25
1.41337043472e-26
3.65757159089e-12
1.72317650988e-11
4.9964160036e-11
8.0733840801e-11
6.33461113653e-11
3.01264354355e-11
9.92804292244e-12
2.45195265504e-12
4.81735073305e-13
7.72789083816e-14
1.02659018334e-14
1.14139297319e-15
1.07158360234e-16
8.5673180683e-18
5.88861824054e-19
3.52203552325e-20
1.86610870561e-21
8.95177979039e-23
3.86507672281e-24
8.80374357519e-26
6.88536996951e-11
1.74083312296e-10
5.85978668743e-10
1.03279813157e-09
7.50879978705e-10
3.17852331578e-10
9.26507761031e-11
2.04360313162e-11
3.62938364091e-12
5.3014852825e-13
6.4638392079e-14
6.65204101772e-15
5.83203818235e-16
4.39517302764e-17
2.87673932796e-18
1.65789634217e-19
8.58548775717e-21
4.11489444731e-22
1.78422227685e-23
3.84011404194e-25
2.31709763566e-09
2.10905414925e-09
6.42216973238e-09
1.06450894104e-08
7.04183910118e-09
2.71138143635e-09
7.21699365995e-10
1.47601884542e-10
2.44735754362e-11
3.3611919818e-12
3.88132370774e-13
3.80985033799e-14
3.20752452346e-15
2.33657593538e-16
1.48830313591e-17
8.41063749999e-19
4.31132231631e-20
2.07463461904e-21
9.22603289185e-23
2.39772809038e-24
1.31513009625e-07
6.97908885413e-08
1.02000243093e-07
1.22141179273e-07
6.81804468202e-08
2.33092778926e-08
5.60375534559e-09
1.05439063183e-09
1.62189156346e-10
2.09053632293e-11
2.29160442233e-12
2.15732229496e-13
1.75752678135e-14
1.2485935372e-15
7.81073807634e-17
4.36494156787e-18
2.22940596416e-19
1.08037056239e-20
4.93655902198e-22
1.60646432155e-23
6.85721634208e-06
7.03264494039e-06
2.80305031229e-06
1.60729553245e-06
6.68720335298e-07
1.95484236698e-07
4.19326249062e-08
7.13494076791e-09
1.0103261428e-09
1.22029325831e-10
1.27304701741e-11
1.15521077187e-12
9.16544153304e-14
6.39400610759e-15
3.95454384505e-16
2.19789950118e-17
1.1227380462e-18
5.47687767147e-20
2.53620896047e-21
9.30237619494e-23
0.00025443946082
0.000866607058625
0.000154735388894
3.1738661153e-05
7.28731042002e-06
1.56488827268e-06
2.83523887443e-07
4.30097482088e-08
5.61069229269e-09
6.39921392621e-10
6.42126656917e-11
5.68048090991e-12
4.43658356997e-13
3.06847049536e-14
1.89135511588e-15
1.05176445317e-16
5.39022505974e-18
2.64114770146e-19
1.21970941541e-20
4.68945394584e-22
0.00579844520722
0.0634739258394
0.00823475066222
0.000945724394526
9.29529430368e-05
1.0900909758e-05
1.5132811484e-06
2.05563946745e-07
2.54666670332e-08
2.83509263295e-09
2.81740110098e-10
2.48842821614e-11
1.94966337407e-12
1.35657477584e-13
8.42575403621e-15
4.72398968013e-16
2.43821965052e-17
1.19813252242e-18
5.45653111693e-20
2.09030815164e-21
0.00798459413296
0.0446833555086
0.00934709406082
0.00130453196343
0.000171620698384
2.48485923005e-05
4.00511822937e-06
6.16920787506e-07
8.38315150303e-08
9.96045111391e-09
1.03783244262e-09
9.50548032137e-11
7.66869132059e-12
5.46806398498e-13
3.46728920792e-14
1.97724990409e-15
1.0325918848e-16
5.088497407e-18
2.27185635912e-19
8.39625701734e-21
0.00896413031918
0.0298145321962
0.00991469124325
0.00141866451759
0.000235215990347
4.20666040743e-05
8.01861538286e-06
1.43842732621e-06
2.22324558921e-07
2.92204379714e-08
3.2916001762e-09
3.20428982944e-10
2.71369761086e-11
2.0124404724e-12
1.31724825701e-13
7.69973667829e-15
4.08709728572e-16
2.02196516826e-17
8.832099956e-19
3.09640014141e-20
0.00932944563834
0.0221153821013
0.0112875365425
0.00204588595155
0.000412380911087
7.94805268578e-05
1.61275940981e-05
3.16397016511e-06
5.39761691106e-07
7.76331299594e-08
9.45039616717e-09
9.8243430327e-10
8.79372073268e-11
6.83081764782e-12
4.64501339222e-13
2.79736185985e-14
1.51445510407e-15
7.53289968107e-17
3.22051225076e-18
1.06370591037e-19
0.0102482384235
0.0262186880172
0.0603503172038
0.00844555432098
0.00138907351385
0.000220828095777
3.86987095571e-05
7.31595511675e-06
1.29024128485e-06
1.96465084121e-07
2.54331289433e-08
2.80514677156e-09
2.65066256658e-10
2.16012211679e-11
1.53016756995e-12
9.52102545694e-14
5.27001003873e-15
2.64000546766e-16
1.10681690669e-17
3.44104656063e-19
0.0115473706882
0.0295089051781
0.0847472894266
0.0138799966509
0.00249137186402
0.000435247195635
7.8763203845e-05
1.52949357743e-05
2.84646976219e-06
4.62179805187e-07
6.37678885492e-08
7.46940831229e-09
7.4603394718e-10
6.39001341595e-11
4.72579073123e-12
3.04514700042e-13
1.72722052609e-14
8.7335741732e-16
3.60198685635e-17
1.05745410007e-18
0.0126454312333
0.0284713506243
0.0588930043099
0.0162183367819
0.00331720087074
0.000670726828051
0.000133991467086
2.79572582021e-05
5.62811500965e-06
9.90889685557e-07
1.47327503223e-07
1.84572763189e-08
1.9579967702e-09
1.76920919958e-10
1.37030684388e-11
9.16971088128e-13
5.34443821557e-14
2.73580748459e-15
1.11472363812e-16
3.10946382696e-18
0.0135116543909
0.0269082641964
0.0468787657492
0.0188429696045
0.00464552127274
0.00107200052213
0.000225851066208
4.87841259658e-05
1.04073632919e-05
1.97394970538e-06
3.16373246374e-07
4.25030172814e-08
4.80414249411e-09
4.59396123619e-10
3.73777694622e-11
2.60514773515e-12
1.56504944685e-13
8.13953298859e-15
3.29324422612e-16
8.80079748317e-18
0.0143356204279
0.0263841081415
0.0471639701441
0.0659426769569
0.0107348277596
0.0021219601674
0.000414971791794
8.61348841333e-05
1.86429741139e-05
3.73182034011e-06
6.39663243769e-07
9.19543330961e-08
1.10794601014e-08
1.12310889883e-09
9.62100138874e-11
7.00264344274e-12
4.34966208727e-13
2.30721097456e-14
9.32091721947e-16
2.40894859065e-17
0.0152738258553
0.0269659902889
0.0508474006509
0.095446165884
0.0164980427419
0.00326577817807
0.000657252648427
0.000139205517913
3.11668009971e-05
6.61528117053e-06
1.21546782839e-06
1.87309201745e-07
2.40993738932e-08
2.59444012378e-09
2.34490623481e-10
1.78670582694e-11
1.15096053613e-12
6.25102519675e-14
2.53585640508e-15
6.40148990279e-17
0.0162612021617
0.0273300854312
0.0474468053332
0.0703088498324
0.0193867099971
0.0041715731973
0.000905664953514
0.000204114423975
4.83610827793e-05
1.09837676451e-05
2.17432717296e-06
3.60451721472e-07
4.9642912701e-08
5.68696667261e-09
5.43348624852e-10
4.34356702685e-11
2.90997150876e-12
1.62430424588e-13
6.65314486025e-15
1.65691102183e-16
0.0172266212673
0.027341179759
0.0430046050172
0.0551774929567
0.0216161807389
0.00518293218985
0.00123442069185
0.000294686854456
7.30494152171e-05
1.75798853537e-05
3.72915414816e-06
6.6343913794e-07
9.77189770667e-08
1.19112240319e-08
1.20375005309e-09
1.01092542435e-10
7.05907599889e-12
4.06289907174e-13
1.68877913167e-14
4.18912718339e-16
0.0181486774771
0.027229656049
0.039771454059
0.0495763136561
0.0247009979059
0.00703696526753
0.00187099038249
0.000458337154697
0.00011384680672
2.81431715826e-05
6.28222438018e-06
1.18738552348e-06
1.8598262665e-07
2.40471811777e-08
2.56711916212e-09
2.26493354862e-10
1.65053676636e-11
9.82054794488e-13
4.16065832518e-14
1.03718969901e-15
0.0190802026096
0.0274065635162
0.0391301950413
0.0558004714454
0.0821582045553
0.0153053701747
0.00346629957374
0.000787251968353
0.000185614745888
4.55035996209e-05
1.04799241356e-05
2.08183037723e-06
3.44587897116e-07
4.70831897357e-08
5.29859199858e-09
4.90817166558e-10
3.73523739461e-11
2.30201090532e-12
9.97859482848e-14
2.52017869756e-15
0.0200811056754
0.0279582219396
0.0397503034251
0.0600869806258
0.0981506510456
0.0219098550497
0.0050812724481
0.00118943808826
0.000284128416479
7.07931951025e-05
1.69340731002e-05
3.5421829022e-06
6.19708071738e-07
8.94388553916e-08
1.0605702709e-08
1.03148762395e-09
8.20438418631e-11
5.24690213781e-12
2.3349840637e-13
6.01880173072e-15
0.0211621027713
0.0286627035431
0.0398681514436
0.0567371858896
0.0729856853792
0.0254181398607
0.00648544873098
0.00163513355873
0.000409137803307
0.000105387372225
2.63477432693e-05
5.82256175155e-06
1.07899982913e-06
1.64695196672e-07
2.05951377103e-08
2.10482248722e-09
1.75190246775e-10
1.1648230848e-11
5.33896970513e-13
1.41403217325e-14
0.0223030836103
0.0293798643224
0.0395362400887
0.0526315054564
0.0606743077864
0.0288313199452
0.0085736774295
0.00235670047929
0.000605649644064
0.000157326622677
4.0409377498e-05
9.35235705384e-06
1.82895213017e-06
2.94833561314e-07
3.88701709509e-08
4.17633774337e-09
3.64148364087e-10
2.52171989535e-11
1.19398828297e-12
3.26882910545e-14
0.0234809339046
0.0300981323441
0.0392644343779
0.0505276384447
0.0609634254779
0.0727592358944
0.0155308260803
0.00386281701375
0.000952125253233
0.000240181685258
6.18310980819e-05
1.47868664313e-05
3.03193590663e-06
5.14647885941e-07
7.14477952001e-08
8.06991466692e-09
7.37690327428e-10
5.32870984938e-11
2.61322330364e-12
7.43459100605e-14
0.0246893790294
0.0308663171941
0.0393188290701
0.0500831234117
0.0641969789151
0.0999290179595
0.0229062875677
0.00563652726121
0.00139457511047
0.000351725237011
9.16729978122e-05
2.27038275593e-05
4.88552610001e-06
8.7383867409e-07
1.27828276001e-07
1.51893228567e-08
1.45721982154e-09
1.099665853e-10
5.59902673899e-12
1.66299987324e-13
0.0259462930691
0.0317507006936
0.0397543692945
0.0504897882701
0.0663067956188
0.0985393395449
0.0290184001432
0.00740644847549
0.00188388404768
0.000486390350124
0.000130177342313
3.35969912444e-05
7.61616147616e-06
1.43953064425e-06
2.22352343933e-07
2.78413328646e-08
2.80734765049e-09
2.21675697498e-10
1.17446713406e-11
3.65660582351e-13
0.0272639587415
0.0327421847475
0.040325259424
0.0504530510763
0.0638445051501
0.0779993972141
0.0331923591132
0.00929359720168
0.00249143881899
0.00066264985718
0.000181524776903
4.85972112837e-05
1.15773604698e-05
2.31101303059e-06
3.77019965635e-07
4.97773942714e-08
5.28019526453e-09
4.36797840655e-10
2.41252053811e-11
7.90022343319e-13
0.0286336058792
0.0337852206641
0.0408486550246
0.0498899535143
0.0601855452103
0.0652993004344
0.0368520524408
0.0119074527609
0.00344198218902
0.000935341254079
0.000256998947597
7.01777562014e-05
1.73922155772e-05
3.64668490862e-06
6.26588169805e-07
8.71152269319e-08
9.71751479875e-09
8.42430251609e-10
4.8561251761e-11
1.67694130141e-12
0.0300347746354
0.0348425916819
0.0413490294186
0.0494297027596
0.0583948050775
0.0654516867643
0.0808480220973
0.019379441489
0.00518272390769
0.00137279619962
0.000369971829324
0.000101413679874
2.58934324018e-05
5.67216708239e-06
1.02338099431e-06
1.49567764713e-07
1.75289835965e-08
1.59220757669e-09
9.58488019148e-11
3.49692618215e-12
0.0314517907515
0.035909139108
0.0418945976642
0.0492839633333
0.0578244831145
0.0670859816992
0.101887711537
0.0272104240319
0.00723263703765
0.00192206987188
0.000517905390991
0.000143417470236
3.77625944149e-05
8.64427856011e-06
1.63782782885e-06
2.51629443861e-07
3.09838329564e-08
2.94921226668e-09
1.85513373325e-10
7.16113546061e-12
0.0328872059956
0.0370151291428
0.0425666622359
0.0495105893828
0.0579836141825
0.0685523374538
0.103911966637
0.0344386394413
0.00950455799691
0.00258320024647
0.000704504397696
0.000197934330587
5.37753500073e-05
1.2869592602e-05
2.56260387801e-06
4.14168190569e-07
5.36108992343e-08
5.35026490087e-09
3.51904682765e-10
1.43910358087e-11
0.0343516199741
0.0381870766009
0.0433855653932
0.0499906289249
0.058247199059
0.0685112354761
0.0940702967023
0.0410789473894
0.0124404771177
0.00351576266837
0.000966292877695
0.000272324291871
7.56310759016e-05
1.88270051972e-05
3.93073708027e-06
6.67687643082e-07
9.08321456619e-08
9.50510799023e-09
6.53993717771e-10
2.83618962369e-11
0.0358485728265
0.0394224052737
0.044306108464
0.0505580556563
0.0583339577968
0.0674980507259
0.0844234083702
0.0646029971042
0.0177690270302
0.00494655709279
0.00134738490325
0.000376061134884
0.000105607523845
2.71634631168e-05
5.92547760465e-06
1.05591161087e-06
1.50824132967e-07
1.65427900744e-08
1.19073451113e-09
5.47980573176e-11
0.0373700492609
0.0406947516126
0.0452568456513
0.051075632837
0.0581310896968
0.0658258370475
0.0757157499762
0.0861851260105
0.0244545843722
0.0067668193167
0.0018391423735
0.000510790781503
0.0001449391677
3.84536558921e-05
8.75594755361e-06
1.63613293099e-06
2.45320971496e-07
2.81995616092e-08
2.123624408e-09
1.03770919885e-10
0.0389056484239
0.0419848449346
0.0462149139478
0.0515755495174
0.0579617566004
0.064811623804
0.0727516774834
0.100208162269
0.0319233107539
0.00894045239157
0.00243880144877
0.000677566962249
0.000194525363437
5.32213987366e-05
1.26512488081e-05
2.47997585702e-06
3.90498720515e-07
4.70575330566e-08
3.70873303643e-09
1.92563841436e-10
0.0404483528207
0.0432886156071
0.0471958357709
0.052137002322
0.0580167426436
0.0644880059962
0.0721853602325
0.106217095042
0.0396151415773
0.0115677151391
0.00319828398168
0.000889889427292
0.000257512660157
7.23794949732e-05
1.79250877844e-05
3.68318029334e-06
6.088816824e-07
7.69143755832e-08
6.34468263211e-09
3.50247835766e-10
0.0419951581664
0.0446104958088
0.0482217638853
0.0528063923042
0.0583137032215
0.0645620588265
0.0721291817714
0.105499250749
0.0476561072192
0.0149127946315
0.00422879352221
0.00117659621346
0.000340290956561
9.7507422576e-05
2.50420675004e-05
5.37996362948e-06
9.3238565111e-07
1.23351225694e-07
1.06457488194e-08
6.25004716279e-10
0.0435451544587
0.0459549228545
0.0493033178099
0.0535878790574
0.0587985437901
0.0648354825461
0.0721722604148
0.10266582512
0.0635248821156
0.0197698050058
0.00565366402112
0.0015661890848
0.000449580061658
0.000130381999169
3.45627403159e-05
7.7428128303e-06
1.40444587363e-06
1.94372460866e-07
1.75401649558e-08
1.09528472286e-09
0.0450982846424
0.0473229234104
0.0504377322016
0.0544584923263
0.0593954977264
0.06516241895
0.0720904399181
0.0986339204626
0.0795053474916
0.0258741588815
0.00747397338446
0.00206641912089
0.000588633048378
0.000172221999388
4.70025933091e-05
1.09640517962e-05
2.0797097606e-06
3.0091234483e-07
2.83829760272e-08
1.88561024593e-09
0.0466550119787
0.0487131322886
0.0516160841686
0.055389948314
0.0600431962654
0.0654584582125
0.0718092070718
0.0935507195581
0.0912490965368
0.0328278546704
0.00972101311498
0.00269273944437
0.000761536903933
0.000224230799434
6.28717149847e-05
1.52556389538e-05
3.02484603792e-06
4.57428522524e-07
4.50941600761e-08
3.18880192061e-09
0.0482139975186
0.0501200493306
0.0528239759754
0.0563525341658
0.0606947109546
0.0656792794855
0.0713314961299
0.088422533939
0.0992776806468
0.0402790974274
0.0124728126613
0.00348562269729
0.000978599832885
0.000288772407483
8.28910336837e-05
2.08841684716e-05
4.32461314705e-06
6.83143466286e-07
7.03723508014e-08
5.29934490908e-09
0.0497704326595
0.0515338583806
0.0540442157722
0.0573215279593
0.0613273597382
0.0658399753918
0.0707942553978
0.0841988192886
0.104159476581
0.0478983734932
0.0158344146044
0.00451139832298
0.00125788175315
0.000369856964658
0.000108118488792
2.82020669081e-05
6.08960770232e-06
1.00383988556e-06
1.08008484844e-07
8.66358070216e-09
0.0513171401727
0.0529441021454
0.0552642588097
0.0582889795941
0.0619578877642
0.0660305270487
0.0704644109617
0.0816755389296
0.106847092198
0.0569081827159
0.0200018521991
0.00584764038932
0.00162139882982
0.000472422931722
0.000139815265621
3.76305979585e-05
8.45738795189e-06
1.45316949835e-06
1.63227550741e-07
1.39477731565e-08
0.0528480901663
0.0543447571001
0.0564817675638
0.0592649518406
0.0626251551415
0.0663407305334
0.0704818965324
0.08071420894
0.108631244286
0.0671576695459
0.0250693677869
0.00755277744862
0.00208885348392
0.000601093105828
0.000179170166742
4.9602933774e-05
1.15849876998e-05
2.07275063156e-06
2.42963531465e-07
2.21210997874e-08
0.0543619045984
0.0557370353077
0.0577040274234
0.0602675975173
0.0633608452505
0.066802479239
0.0707999453638
0.0805947548213
0.109703999576
0.0759115988409
0.0308005430181
0.00967417968277
0.00268305192373
0.00076109974214
0.000227390130763
6.45561850992e-05
1.5645359106e-05
2.91227230685e-06
3.56138274062e-07
3.45591542536e-08
0.0558630127419
0.0571284138112
0.0589432347137
0.0613140601167
0.0641822622198
0.0674159453886
0.071359081402
0.0809378717089
0.110209105013
0.0827740106483
0.0368646190342
0.0122632555698
0.00343936251499
0.000960761685424
0.000286175016642
8.30052963071e-05
2.08379787422e-05
4.03149308504e-06
5.14164906986e-07
5.31887268559e-08
0.0573602269926
0.0585291079655
0.0602104908244
0.0624133606024
0.0650890401749
0.0681563755128
0.0720831255561
0.0815719366929
0.110394246276
0.0880691708826
0.042917378672
0.0153540164358
0.00440721486301
0.00121305602655
0.000358093637493
0.000105615168847
2.74028912097e-05
5.50336756501e-06
7.31689033956e-07
8.0686987072e-08
0.0588640479294
0.0599486025368
0.0615124914821
0.0635661693334
0.0660716501334
0.0689997589199
0.0729364815683
0.082437786159
0.110496725588
0.0919889707891
0.0487882248483
0.0189400598527
0.00564351750042
0.00153570413706
0.000446652330459
0.000133206218195
3.56224010706e-05
7.41549477396e-06
1.02723554453e-06
1.20713737245e-07
0.0603837583115
0.0613932705453
0.0628509407302
0.0647680643274
0.067119850681
0.0699333047669
0.0739171232148
0.0835465446166
0.11070371573
0.0950221350537
0.0542643520938
0.0229361683089
0.00720001728235
0.00195069735392
0.000556273989811
0.000166727029504
4.58116040819e-05
9.86897298384e-06
1.42348819287e-06
1.78137245058e-07
0.0619248333042
0.0628650894396
0.0642235364467
0.0660133495761
0.0682279123231
0.0709573096925
0.0750449643251
0.0849320093672
0.11110066567
0.0973642020202
0.0591877878519
0.027175987066
0.00911565883968
0.00248601313498
0.000692789438345
0.000207313209757
5.83182159622e-05
1.29773975001e-05
1.94738943543e-06
2.59243389658e-07
0.0634874840189
0.064361905639
0.0656265247602
0.067299644101
0.0693999467741
0.0720905271586
0.0763711040263
0.0866947532347
0.111665684118
0.098860713523
0.0632292971992
0.0314641193388
0.0114086131784
0.0031784096261
0.000864531584886
0.000256470081977
7.35420825027e-05
1.68682713657e-05
2.63036861616e-06
3.7194706317e-07
0.0650685901865
0.0658814781888
0.0670613825187
0.0686375109485
0.0706641684271
0.0733962555297
0.0780411178312
0.0892146333667
0.112390652318
0.0996822664006
0.0663069891351
0.0356002758198
0.0140557541266
0.00407204357492
0.00108345577256
0.000316286970357
9.19583608601e-05
2.1684563036e-05
3.508544671e-06
5.26028928792e-07
0.0666668835623
0.0674271567879
0.0685399967161
0.0700529518386
0.0720688274848
0.0749615606838
0.0802185601218
0.0927965188896
0.112955072463
0.0999624342872
0.0686576162854
0.0393239809226
0.0169672091403
0.00521361163341
0.00136698162784
0.000389790523027
0.000114154240749
2.75863352189e-05
4.62281815657e-06
7.33435523529e-07
0.0682847590323
0.0690060494468
0.0700758872887
0.0715662831072
0.0736386358271
0.0768059906111
0.082856297076
0.096982510296
0.113388925756
0.0997997341919
0.0703941134573
0.0424739253992
0.0200269132032
0.00664736804805
0.00174119216929
0.000481568361063
0.000140895311458
3.47541221131e-05
6.0193342082e-06
1.00884396742e-06
0.0699257358511
0.0706235175647
0.0716755885883
0.0731827409696
0.0753725557786
0.0789081259291
0.0858322748368
0.101323414819
0.113638186017
0.0992233860668
0.0715382131151
0.0449624395118
0.0231271982552
0.00839539799297
0.00224101315544
0.00059812146991
0.000173135530709
4.33802756016e-05
7.74912065042e-06
1.37058057862e-06
0.0715951147717
0.0722857111698
0.073346321423
0.0749114842815
0.07728365546
0.0812781973815
0.0890863589096
0.105488389885
0.113534261509
0.0982356457345
0.0721434963821
0.0469505705198
0.0260388856651
0.0104194339101
0.00290601935658
0.000748193835949
0.000212016747837
5.36530065928e-05
9.86813976791e-06
1.84233021034e-06
0.0733184991986
0.074025275637
0.0751337999292
0.0768221396594
0.0794829670748
0.0840864954191
0.0928764026624
0.109151553581
0.112908087239
0.0968211116602
0.0722509134556
0.0484964858791
0.028574927386
0.0126538849483
0.00377747466987
0.000944074828589
0.000259009979947
6.57582497868e-05
1.24420237473e-05
2.45619924839e-06
0.0751955958646
0.0759669497703
0.0772073636962
0.0791630578461
0.0823637767439
0.0880206711246
0.0987390246999
0.112273590693
0.111698384636
0.0950007706293
0.0719050555761
0.0496072443106
0.0306323596496
0.0150173854829
0.00488729403425
0.00120263185498
0.000316047661627
7.98801661112e-05
1.55553366678e-05
3.25736021303e-06
0.0773824481959
0.0782769389706
0.0797418937456
0.0821001981219
0.0860104346581
0.0928261665616
0.105047017593
0.114389759601
0.10983867228
0.0928045140371
0.0711613678841
0.0503220838022
0.0323224146715
0.0173225571525
0.00623281943479
0.00154591564134
0.000385769030947
9.62121235701e-05
1.93263191902e-05
4.31076915952e-06
0.08015307791
0.0812530576051
0.0830771722001
0.0860504553206
0.0909985570797
0.0995294297848
0.11071368528
0.115132848608
0.107289139216
0.0902624021538
0.0700753102954
0.0506875638184
0.0337024656361
0.0193745965457
0.00783291374458
0.00200854126779
0.000472485007526
0.000115024279028
2.39306819003e-05
5.70927190634e-06
0.0838841749701
0.0852892521226
0.0876320973039
0.0914550760993
0.0977480895005
0.107268035749
0.114860541725
0.114352754801
0.104092178958
0.087435563215
0.0687230266861
0.0507713537012
0.0348216528656
0.0211530108168
0.00963076821991
0.00263615910301
0.000583074373857
0.000136660319944
2.9615078463e-05
7.60506771971e-06
0.0890839580652
0.0909735870086
0.0941343003931
0.0992687650096
0.106722448856
0.113967786692
0.11684614105
0.112364436152
0.100794865879
0.0848998107008
0.0676419208986
0.0510038928718
0.0359728114766
0.022852969547
0.0115401919802
0.00347324699405
0.000717712612654
0.000160162167344
3.65200911167e-05
1.02131935148e-05
1.41855159601e-23
2.73686219524e-23
1.8177847794e-23
3.11169495513e-23
5.04043725127e-23
6.04805002044e-23
1.88337244041e-22
1.64223022535e-22
6.71551420297e-22
4.3109017223e-22
2.21663644267e-21
1.13062828507e-21
6.87807596506e-21
2.95061157303e-21
2.03241271414e-20
7.6427595911e-21
5.77726494573e-20
1.96487196046e-20
1.59368849234e-19
5.02206139332e-20
4.295660503e-19
1.27836841386e-19
1.13663911299e-18
3.24400778652e-19
2.9611798411e-18
8.2084087492e-19
7.61002812586e-18
2.07066859096e-18
1.93179299739e-17
5.20598989193e-18
4.84870327964e-17
1.3041079142e-17
1.20432310407e-16
3.25424212336e-17
2.9620028043e-16
8.08770215706e-17
7.21544910539e-16
2.0012294346e-16
1.74026395107e-15
4.92859956252e-16
4.1528001215e-15
1.20610467762e-15
9.7957627164e-15
2.92639009244e-15
2.28138649955e-14
7.02789143115e-15
5.23954147214e-14
1.66792592759e-14
1.18529131404e-13
3.90644490959e-14
2.63812762693e-13
9.02166126423e-14
5.77290278281e-13
2.050568152e-13
1.24094710802e-12
4.58047964918e-13
2.61793005481e-12
1.0042269246e-12
5.41560100565e-12
2.15855243489e-12
1.09798195672e-11
4.54544112733e-12
2.18109371367e-11
9.37290066009e-12
4.24439613139e-11
1.89214553677e-11
8.09309473765e-11
3.73992143914e-11
1.51318134889e-10
7.24164944239e-11
2.77665944042e-10
1.37470864991e-10
5.0028035941e-10
2.55990326663e-10
8.85161912661e-10
4.67734319815e-10
1.53855568896e-09
8.38874156028e-10
2.62936690657e-09
1.47779511611e-09
4.42200462208e-09
2.55910987643e-09
7.32151277682e-09
4.35842557653e-09
1.19344971786e-08
7.30109913816e-09
1.9153635741e-08
1.20303046726e-08
3.02736805951e-08
1.95007832279e-08
4.71381396875e-08
3.1101303238e-08
7.23062191055e-08
4.88025961467e-08
1.09233725135e-07
7.53276545798e-08
1.62473779448e-07
1.143490427e-07
2.37922752949e-07
1.7073842071e-07
3.43149275926e-07
2.50904755069e-07
4.87925981003e-07
3.63316354112e-07
6.85060714629e-07
5.19290178054e-07
9.5187669863e-07
7.34396515638e-07
1.31240229121e-06
1.03035717115e-06
1.79951868148e-06
1.43620020002e-06
2.46011105942e-06
1.99324709519e-06
3.3558134362e-06
2.75220753332e-06
4.58403943859e-06
3.7826706334e-06
6.59241987144e-06
5.69191824707e-06
)
;

boundaryField
{
    inletfuel
    {
        type            fixedValue;
        value           uniform 0;
    }
    inletair
    {
        type            fixedValue;
        value           uniform 0;
    }
    outlet
    {
        type            zeroGradient;
    }
    axis
    {
        type            empty;
    }
    leftside
    {
        type            zeroGradient;
    }
    burnerwall
    {
        type            zeroGradient;
    }
    front
    {
        type            wedge;
    }
    back
    {
        type            wedge;
    }
}


// ************************************************************************* //
