/*--------------------------------*- C++ -*----------------------------------*\
  =========                 |
  \\      /  F ield         | OpenFOAM: The Open Source CFD Toolbox
   \\    /   O peration     | Website:  https://openfoam.org
    \\  /    A nd           | Version:  dev
     \\/     M anipulation  |
\*---------------------------------------------------------------------------*/
FoamFile
{
    version     2.0;
    format      ascii;
    class       volScalarField;
    location    "0.3";
    object      dQ;
}
// * * * * * * * * * * * * * * * * * * * * * * * * * * * * * * * * * * * * * //

dimensions      [1 2 -3 0 0 0 0];

internalField   nonuniform List<scalar> 
1629
(
1.34915368802e-21
4.81766264249e-21
1.11450542148e-20
1.46947443281e-19
7.55009542572e-19
3.42362806222e-18
8.044514019e-18
6.6495972226e-17
6.31478158061e-16
7.76205892063e-17
3.49815800163e-15
7.94216424036e-14
1.03961348019e-14
1.90403508533e-13
4.72975234215e-12
7.30728065828e-13
1.65161446315e-11
4.5700213724e-10
6.92139920878e-11
2.49481712969e-09
6.54528240999e-08
7.8718614194e-09
2.77836805515e-07
8.31870723639e-06
4.8211118163e-08
8.84889926638e-07
1.22633297612e-05
1.59957310207e-07
1.70082509761e-06
1.2697621372e-05
3.49408445305e-07
2.48825421814e-06
1.18898210349e-05
5.99608110501e-07
3.28279792839e-06
1.22701201394e-05
9.19175815271e-07
4.3688868171e-06
1.51700780732e-05
1.30760904693e-06
5.64064123882e-06
1.77873588165e-05
1.75462003072e-06
7.08491553269e-06
2.05370529307e-05
2.22040375978e-06
8.48059316978e-06
2.24813216161e-05
2.64880305883e-06
9.66384101062e-06
2.36443501179e-05
2.98341147795e-06
1.048417537e-05
2.38231367706e-05
3.19375080397e-06
1.08733273916e-05
2.32807398925e-05
3.29310112064e-06
1.09546518987e-05
2.25879395178e-05
3.33199201533e-06
1.09727723477e-05
2.22751502567e-05
3.35198770479e-06
1.10096713093e-05
2.22599672851e-05
3.35137726793e-06
1.09770116294e-05
2.20038643825e-05
3.30939454429e-06
1.07789438225e-05
2.12995159732e-05
3.22249358422e-06
1.04284525563e-05
2.03118370579e-05
3.11530250779e-06
1.00339415095e-05
1.93552240046e-05
3.02343468639e-06
9.72507196199e-06
1.86789184241e-05
2.97507432961e-06
9.55797565618e-06
1.83012816167e-05
2.964236422e-06
9.49426829953e-06
1.80642664765e-05
2.96788141659e-06
9.46271379128e-06
1.78356635774e-05
2.96215292764e-06
9.39994472698e-06
1.75518723944e-05
2.94427938563e-06
9.30851671896e-06
1.72783633135e-05
2.93859616154e-06
9.27548060081e-06
1.72037091447e-05
2.97876184836e-06
9.40665527597e-06
1.7510082913e-05
3.10377191547e-06
9.82759054179e-06
1.83815665797e-05
3.36199729305e-06
1.06613299095e-05
2.0004363868e-05
3.80088723471e-06
1.2055040961e-05
2.26167568328e-05
4.46819516856e-06
1.41425859245e-05
2.64127242244e-05
5.38802765987e-06
1.69931219851e-05
3.14865833883e-05
6.55742816794e-06
2.05897633205e-05
3.77967485506e-05
7.97421528887e-06
2.49352219261e-05
4.54229606183e-05
9.71361650857e-06
3.02984616421e-05
5.49248535283e-05
1.19984516304e-05
3.73753620562e-05
6.7582087704e-05
1.52165663665e-05
4.73573674477e-05
8.54728116532e-05
1.99359420494e-05
6.19704117754e-05
0.000111547346305
2.69307111817e-05
8.35506232166e-05
0.000149744591572
3.71762592431e-05
0.000115019298881
0.000204903964812
5.17156971137e-05
0.000159455228819
0.000281953406521
7.124342178e-05
0.000218812274527
0.000383656284894
9.52422669945e-05
0.000291292887452
0.000506090303883
0.000120649631984
0.000367355011172
0.000632048015908
0.00014073974828
0.000426502901241
0.000726251098712
0.000146149170089
0.000440663844854
0.000742076945689
0.000129562341907
0.000388421062496
0.000645844513687
9.11895191677e-05
0.000271140131454
0.000442517035938
3.94106931161e-05
0.000114432373618
0.000176430353214
-1.37101286852e-05
-4.54209346057e-05
-9.16412339849e-05
-5.70825174492e-05
-0.000175208995313
-0.000306581981783
-8.24413140373e-05
-0.000250079697587
-0.000426716192182
-8.55393537761e-05
-0.000257231386172
-0.000430474602795
-6.26917423696e-05
-0.000184769070492
-0.000294789438365
-6.95160035927e-06
-1.01785187512e-05
2.41822998338e-05
0.000116341538514
0.000375961489683
0.000729288241434
1.31255043849e-12
5.67363816289e-11
5.42492977883e-09
7.63166537665e-07
0.00014848666542
9.14145992643e-05
5.05513093622e-05
3.20536567196e-05
3.15120393274e-05
4.48308546625e-05
4.72312393725e-05
5.04203241327e-05
4.87555282575e-05
4.63613073873e-05
4.25984405655e-05
3.86269372049e-05
3.58880478491e-05
3.50358914678e-05
3.48506396769e-05
3.38506179027e-05
3.19954364087e-05
2.98753891196e-05
2.80939984702e-05
2.69260735974e-05
2.62086991283e-05
2.5624164831e-05
2.50072719767e-05
2.43922824326e-05
2.39387340088e-05
2.38912829678e-05
2.44765737041e-05
2.58533837148e-05
2.82227570486e-05
3.18398879245e-05
3.69218688257e-05
4.35226150031e-05
5.16389320523e-05
6.14965032098e-05
7.39558575374e-05
9.07326349952e-05
0.000114457026119
0.000148775703949
0.000198463266773
0.000269230970935
0.000366598727213
0.000492968287735
0.000642017687164
0.000790922292712
0.000895665197211
0.000900934581983
0.000769953182463
0.000513165273358
0.000186313810141
-0.000137352045952
-0.000392166156386
-0.000527614036663
-0.000517383536107
-0.000327816110438
0.000104841381501
0.00106021473535
2.90061550554e-16
7.46001234666e-16
1.92684386363e-15
4.38465622011e-15
5.58202476984e-15
4.1515276025e-15
2.03145596257e-15
7.10540314849e-16
1.8916305944e-16
3.97046682504e-17
6.70732933955e-18
9.24139138012e-19
1.04969744972e-19
9.92348783149e-21
7.88467591012e-22
5.32602772628e-23
3.10635271496e-24
1.59379446364e-25
7.50750593972e-27
6.20880592658e-28
3.59816218409e-15
9.75588108195e-15
2.6929802515e-14
6.77063058342e-14
8.22747207839e-14
5.4472687497e-14
2.31955451256e-14
7.0472541123e-15
1.64552345108e-15
3.05770875875e-16
4.6078499505e-17
5.71900200754e-18
5.91223624288e-19
5.14520798555e-20
3.81188697592e-21
2.43682449561e-22
1.3699564885e-23
6.93298206672e-25
3.28830755671e-26
2.84867692615e-27
4.46168011996e-14
8.15609143754e-14
2.30630117455e-13
6.10796745519e-13
6.90455891959e-13
4.06812814742e-13
1.52587346589e-13
4.11818708306e-14
8.64325195366e-15
1.45419390665e-15
2.00164134871e-16
2.28750332466e-17
2.19765940947e-18
1.79417590692e-19
1.25969338008e-20
7.72113634424e-22
4.22089931063e-23
2.1238956638e-24
1.02178336475e-25
8.86740683568e-27
4.17191442008e-12
5.68365080332e-12
5.21256072615e-12
8.27174031938e-12
7.75934682963e-12
4.0649087861e-12
1.3735273624e-12
3.41139701794e-13
6.63672672815e-14
1.04341566583e-14
1.35300693638e-15
1.46850722908e-16
1.34852750795e-17
1.06016103482e-18
7.21825616953e-20
4.32382445996e-21
2.33209191444e-22
1.17511523332e-23
5.88303056654e-25
6.03277575318e-26
3.44590233654e-10
2.30597736146e-10
1.81005873098e-10
1.3963295905e-10
9.35317501422e-11
4.05271916267e-11
1.20485323522e-11
2.69748955776e-12
4.81876055518e-13
7.0392649077e-14
8.58995763879e-15
8.87233497343e-16
7.83417927835e-17
5.97258676722e-18
3.97447712768e-19
2.34460365366e-20
1.25572790079e-21
6.36044783101e-23
3.3322482247e-24
4.32084923036e-25
1.07431019084e-07
2.74755600754e-07
2.86003160568e-08
4.76457529571e-09
1.54896412545e-09
4.38251738925e-10
1.04084215413e-10
2.0328203426e-11
3.26368647003e-12
4.41176369955e-13
5.06565540737e-14
4.99616126346e-15
4.26357561006e-16
3.17080181235e-17
2.07526644787e-18
1.21248304996e-19
6.47460233792e-21
3.29751129888e-22
1.78898964006e-23
2.56255838135e-24
4.55056021917e-05
0.00125406095993
3.31597526408e-05
1.50676055585e-06
6.86908701879e-08
6.74553346043e-09
8.99453700347e-10
1.37047273721e-10
1.95014872942e-11
2.43262785001e-12
2.65137174224e-13
2.52445744935e-14
2.10540569278e-15
1.54386284664e-16
1.01632862436e-17
5.84610470919e-19
3.12622442876e-20
1.59945911795e-21
8.86830250245e-23
1.28962399527e-23
0.0155087444694
1.17422823601
0.0164058972178
0.000446678500183
5.7029650333e-06
1.34956467336e-07
7.75379343406e-09
7.43705721874e-10
9.1021415563e-11
1.08194787674e-11
1.15451281875e-12
1.09241234543e-13
9.11917240694e-15
6.72260697838e-16
4.39809782918e-17
2.58495837275e-18
1.3930844932e-19
7.16419979085e-21
4.02480590534e-22
5.60277868465e-23
0.0033859042267
0.0752430737965
0.00354320755361
0.000165195967651
7.80510891804e-06
2.91458251646e-07
2.15206228096e-08
2.10235548806e-09
2.66081680155e-10
3.41426302437e-11
3.89579070269e-12
3.88393130274e-13
3.37509923004e-14
2.56986058128e-15
1.72710588369e-16
1.03748718423e-17
5.68118003324e-19
2.94521620339e-20
1.67030245405e-21
2.14350843405e-22
0.000862078189907
0.00929779259849
0.000719445428816
4.99023354172e-05
6.32704986456e-06
4.06400220487e-07
4.03467585463e-08
4.52803469841e-09
5.99494549108e-10
8.4675336726e-11
1.07073487885e-11
1.16168170431e-12
1.07950176514e-13
8.67199264561e-15
6.08467900814e-16
3.77882026703e-17
2.11863211479e-18
1.1114052933e-19
6.35871385882e-21
7.37327693089e-22
0.000333168821872
0.00162588531636
0.00167353623588
5.57001431777e-05
7.58107877005e-06
6.77597768419e-07
7.72863532132e-08
9.48853169757e-09
1.27032668925e-09
1.88701816032e-10
2.61367113661e-11
3.08704051682e-12
3.09000782045e-13
2.64066271556e-14
1.94928716048e-15
1.26185056338e-16
7.26745548887e-18
3.86950913656e-19
2.23443828433e-20
2.32015035004e-21
0.00046144643171
0.0230557975559
0.999107065395
0.0104131572648
0.000397687172098
9.45155470775e-06
3.8386960603e-07
3.16261027265e-08
3.29259682421e-09
4.35855872934e-10
6.16500203074e-11
7.70974026093e-12
8.22484752271e-13
7.44568242351e-14
5.77897522687e-15
3.89454995927e-16
2.31344650091e-17
1.25236947825e-18
7.30299343536e-20
6.77304597591e-21
0.000866509420985
0.0447169890912
0.79633982711
0.0233879534159
0.00072836080973
2.8598855774e-05
9.92368006992e-07
8.41803889234e-08
8.23742096633e-09
1.01481623313e-09
1.40497574127e-10
1.83445530341e-11
2.0596077485e-12
1.96622530648e-13
1.60145853302e-14
1.12413857537e-15
6.88328923715e-17
3.79375105146e-18
2.23604620013e-19
1.85579044546e-20
0.000708721953599
0.017654914431
0.531582844044
0.0107854139647
0.000361889779976
2.78775024123e-05
1.49042465664e-06
1.53299618865e-07
1.77921599953e-08
2.12084705035e-09
2.94062925717e-10
4.02043967221e-11
4.79143021672e-12
4.84224137486e-13
4.14838865427e-14
3.03733109852e-15
1.92347803222e-16
1.08053861805e-17
6.44942111881e-19
4.8164270547e-20
0.000674485148216
0.0128369868891
0.563716760933
0.0103312584403
0.000307322084128
2.25913649346e-05
2.16811080355e-06
2.53485880427e-07
3.31564207726e-08
4.09860921125e-09
5.63969062185e-10
8.05866833473e-11
1.02582352825e-11
1.1065196133e-12
1.00223194912e-13
7.68567698918e-15
5.03841559801e-16
2.90196400324e-17
1.75939497763e-18
1.19194804363e-19
0.000520938835393
0.00576019347969
0.0849505541187
1.02302949467
0.00907542956358
0.000352042988843
1.08094594954e-05
5.77250514634e-07
6.60501451732e-08
7.76881809097e-09
1.03018667696e-09
1.50679442334e-10
2.04215985593e-11
2.35256665909e-12
2.26162191565e-13
1.82327926737e-14
1.24273783044e-15
7.36801928546e-17
4.55432047319e-18
2.82636101318e-19
0.000423360620357
0.00368809149561
0.0502257256015
0.844099102591
0.023022910979
0.000703841397019
2.71200865082e-05
1.12947540995e-06
1.23392129376e-07
1.51936814592e-08
1.89228028081e-09
2.69138099068e-10
3.8228352377e-11
4.68618999398e-12
4.78908430795e-13
4.06995279149e-14
2.89495150705e-15
1.77395756613e-16
1.12217919455e-17
6.44628800043e-19
0.000331825374004
0.0020831753279
0.0218490076255
0.605612718601
0.0135035489153
0.000401165812824
2.5826503752e-05
1.47226650049e-06
1.90118671565e-07
2.51893965992e-08
3.30591917186e-09
4.62431902526e-10
6.75151803167e-11
8.79543959735e-12
9.56446871274e-13
8.58506058756e-14
6.39036262392e-15
4.06409792011e-16
2.6403289572e-17
1.41886572283e-18
0.000264732610357
0.00130703583481
0.012156320325
0.517239904936
0.0104198674854
0.0002253151177
1.59806350885e-05
1.67528922291e-06
2.58919271373e-07
4.1248160183e-08
5.61280141511e-09
7.74262738391e-10
1.13859600053e-10
1.56379172789e-11
1.81050224555e-12
1.71891875578e-13
1.34225037412e-14
8.89540893196e-16
5.95098304213e-17
3.02263888168e-18
0.000231593391743
0.00109818523727
0.0109323063261
0.617927500107
0.0166089205233
0.000382187803183
1.94034823811e-05
2.24065159216e-06
3.68701848525e-07
6.55308961879e-08
9.59936964569e-09
1.24595180437e-09
1.86152888654e-10
2.66342844444e-11
3.26786877124e-12
3.28316461663e-13
2.6943447237e-14
1.8650948309e-15
1.28894785529e-16
6.24853511138e-18
0.000224650389904
0.00110203773291
0.011580157179
0.356884983526
1.48114373157
0.0206350973577
0.000829703960069
2.87590675829e-05
1.11671880886e-06
1.30850531271e-07
1.78939467321e-08
2.21266652803e-09
3.04832279174e-10
4.41629558834e-11
5.67546987758e-12
6.02082042495e-13
5.19495161949e-14
3.76507518591e-15
2.69175714145e-16
1.2565872865e-17
0.000220690850913
0.0010288343635
0.00963859104609
0.130676720465
0.965682316429
0.0398233322647
0.00125472549769
5.76215736827e-05
2.06562397734e-06
2.36241937959e-07
3.28917859724e-08
4.11365954005e-09
5.10775622205e-10
7.19842127966e-11
9.57511369795e-12
1.06733852732e-12
9.67227211421e-14
7.3452485917e-15
5.43827135382e-16
2.46415490385e-17
0.000203971332476
0.00081047200182
0.00572781494924
0.0547596373261
0.687522043694
0.0235759348612
0.000663463623596
3.87059259856e-05
2.53977591349e-06
3.39897968098e-07
5.44851519796e-08
7.07142835991e-09
8.70859935853e-10
1.15986613628e-10
1.57620165158e-11
1.8379730975e-12
1.74660467456e-13
1.39023311666e-14
1.06625391285e-15
4.721948015e-17
0.000181588811437
0.000619718261932
0.00349584414487
0.0298407067074
0.699473227721
0.0209101513455
0.000489094314459
2.85180160652e-05
2.90501963869e-06
4.39619375984e-07
8.32313212748e-08
1.18862374033e-08
1.49622839635e-09
1.87007285296e-10
2.54202247691e-11
3.08248692717e-12
3.06780234924e-13
2.56007817331e-14
2.03383516667e-15
8.85597992788e-17
0.000161161751646
0.000498681170193
0.00249458933886
0.0215743398837
0.565738448259
1.38395383764
0.0126536713269
0.000521365233643
1.8174114729e-05
9.46385560675e-07
1.37720050894e-07
2.0193863645e-08
2.38949059569e-09
3.04268671263e-10
4.0445904185e-11
5.04568757928e-12
5.25123872211e-13
4.59504888556e-14
3.78221688567e-15
1.62721459145e-16
0.00014644713454
0.000437551615525
0.00213852569808
0.0198706908953
0.311215153749
1.10003736925
0.033886457881
0.00120117149155
5.06680067565e-05
1.8075763396e-06
2.26916150444e-07
3.52756716668e-08
4.1086630279e-09
5.03754641252e-10
6.38835450562e-11
8.08197887107e-12
8.77386037461e-13
8.05109329327e-14
6.86133117417e-15
2.93079996579e-16
0.000137676515945
0.000415309147906
0.00205714115438
0.0188338646128
0.160771697453
0.948783345962
0.0578665838252
0.00150394300042
6.11670357144e-05
2.5638322407e-06
3.2703189138e-07
5.51640163684e-08
7.58049895267e-09
8.45590292885e-10
1.0055037757e-10
1.27162445872e-11
1.43358362293e-12
1.37882552601e-13
1.21625155835e-14
5.1762974701e-16
0.000132136957377
0.000403398758474
0.00195271283402
0.0160722192384
0.105515320438
0.796828019616
0.0678739773054
0.00124836041602
5.16450797045e-05
2.9953432671e-06
4.16413530192e-07
8.02798546464e-08
1.27182762622e-08
1.42850903689e-09
1.55480857505e-10
1.97498425592e-11
2.29663428291e-12
2.31174250375e-13
2.10891670774e-14
8.96868980798e-16
0.000127459286878
0.000390103019874
0.00179462444718
0.0129768720409
0.0802543064451
0.848367817465
0.0836824835139
0.00102441353764
4.5701879334e-05
3.40518336653e-06
4.94670466995e-07
1.08124928008e-07
1.841448958e-08
2.40328326084e-09
2.46250996664e-10
3.04836772834e-11
3.61853740907e-12
3.80106854685e-13
3.58061502291e-14
1.52523943517e-15
0.00012329609336
0.000378425432767
0.00165692931745
0.0107950361039
0.0641647714053
0.641353141874
1.63950503187
0.0196348893255
0.000729512653762
2.43695837992e-05
1.09523746594e-06
1.66452703849e-07
2.83786991627e-08
3.97095205463e-09
4.02188802794e-10
4.71560374353e-11
5.62396049026e-12
6.13821086782e-13
5.95978552666e-14
2.54669754285e-15
0.000120030179538
0.000370716417041
0.00155061562396
0.00925404538464
0.0540863884793
0.387535301758
1.25043628657
0.0473510624383
0.0015617430421
6.26162424332e-05
2.03004393447e-06
2.56759813365e-07
4.46561701991e-08
6.03447370598e-09
6.71215747278e-10
7.36150360389e-11
8.6429344435e-12
9.74216547418e-13
9.72731827754e-14
4.17376142628e-15
0.000118526006519
0.000369776409738
0.00148670161833
0.00825641747692
0.048289962858
0.216724695005
1.1593462722
0.0883680016952
0.00226291722318
8.36716972513e-05
3.12929526381e-06
3.68776996292e-07
6.67512146033e-08
8.71799513377e-09
1.13344662366e-09
1.16271392925e-10
1.31809919465e-11
1.52091390065e-12
1.55686337035e-13
6.71545211166e-15
0.000119899172979
0.000378512240043
0.00147167631546
0.0077180324325
0.0434917864306
0.14509407635
1.10851224108
0.162989279325
0.00307653830776
0.000112862279609
4.64871915237e-06
4.99064441142e-07
9.50512242932e-08
1.47016312447e-08
1.9058526744e-09
1.86684639107e-10
2.00846212568e-11
2.34158697055e-12
2.44536465431e-13
1.05889459005e-14
0.00012482208985
0.000396189857508
0.00148801236382
0.00738827275868
0.0395824016069
0.102876229756
0.976080933137
1.08804384657
0.0103880387035
0.000365007909278
1.20345640792e-05
8.08075672245e-07
1.37078774956e-07
2.47135606764e-08
3.14687045032e-09
2.79538666677e-10
3.08227993952e-11
3.57055942691e-12
3.77720116119e-13
1.64009532137e-14
0.000133274990071
0.000418649877603
0.00150606562894
0.00701369127234
0.0348120665606
0.0597664709454
0.805430591018
1.1280466465
0.0227615675068
0.000784398519625
2.75184859401e-05
1.30821069445e-06
1.92769419283e-07
3.56039225915e-08
5.0698492326e-09
4.32304760246e-10
4.77733567848e-11
5.40733280427e-12
5.74553273728e-13
2.49843956104e-14
0.000145755871462
0.000447062733206
0.00154398342206
0.00679656547324
0.0316636680058
0.0453234935168
0.578432170768
1.23109289429
0.0504052778845
0.00152902677954
5.42130022231e-05
1.94000925715e-06
2.62073076e-07
4.86789876439e-08
7.81928099498e-09
6.95819437299e-10
7.4566836916e-11
8.13181545867e-12
8.60228687915e-13
3.74045407248e-14
0.00016311755744
0.000484774516866
0.0016195464833
0.00680031865823
0.0299082606915
0.0425012830312
0.413541445781
1.31356295839
0.102905477366
0.00263130531041
8.52327639722e-05
2.90146359454e-06
3.45059253458e-07
6.58650371686e-08
1.13523078117e-08
1.12743272372e-09
1.16952510363e-10
1.21418805707e-11
1.26617512383e-12
5.49680684047e-14
0.000186007541391
0.000534666098394
0.0017418237737
0.00700819402556
0.0290258738341
0.041988479389
0.311943776552
1.36365544288
0.237408530585
0.00423343932139
0.000133372763247
4.50397110459e-06
4.53829231799e-07
8.75955523547e-08
1.52032179791e-08
1.80804899443e-09
1.84452050019e-10
1.8043554558e-11
1.83228512509e-12
7.92652659718e-14
0.000214735189649
0.00059953784709
0.00191571606809
0.00738882571068
0.0286750164834
0.0405770976333
0.235036856513
1.33844061055
0.793723508963
0.01082601856
0.000331812337087
9.77862224638e-06
6.69879516448e-07
1.15523996058e-07
1.99888599149e-08
2.85600824646e-09
2.90802772777e-10
2.67990523275e-11
2.61113513038e-12
1.12155291692e-13
0.000249875594833
0.000683217613462
0.00214563752144
0.00791182801797
0.0285953783992
0.0378458632859
0.164293423218
1.24275775612
0.945518642042
0.0223203177863
0.000675678147779
2.02317324098e-05
1.01640280367e-06
1.54913173487e-07
2.71153353358e-08
4.40729054418e-09
4.57288406398e-10
3.98784538332e-11
3.67167391784e-12
1.55699951752e-13
0.000293553483573
0.000792377865611
0.00244184021213
0.00857258600889
0.028657753829
0.0347293148817
0.108059353224
1.1076788253
1.08329802374
0.0425392785164
0.00123162928441
3.70642528695e-05
1.46808479712e-06
1.98476058465e-07
3.75004805589e-08
6.36659802531e-09
6.88528792841e-10
5.94150155019e-11
5.10431091067e-12
2.12056113044e-13
0.000350444011998
0.00093750687801
0.00282191324378
0.00938736482614
0.0288078317576
0.0312365835285
0.0656860797733
0.967340248786
1.23506164678
0.080089350041
0.00214325288235
6.23060502042e-05
2.01167167336e-06
2.47088352322e-07
4.79676352953e-08
8.87699132138e-09
8.90640038556e-10
8.84843348809e-11
7.03510891605e-12
2.83674610442e-13
0.000428123651211
0.00113328772365
0.00330979689134
0.0103766177478
0.0289725095146
0.0271430481801
0.0317253987126
0.865169671983
1.36012893829
0.159451631073
0.00355513829209
9.6389924538e-05
2.91175750392e-06
3.04879657228e-07
5.95202710733e-08
1.19910628007e-08
1.16872306173e-09
1.32253509649e-10
9.65217163649e-12
3.73947636764e-13
0.000537331357308
0.00139920708871
0.00393527474123
0.0115565656295
0.0290643973635
0.0225383703775
0.00743705629541
0.794098303188
1.44760212684
0.372422353703
0.0070944294278
0.000188055545965
5.04006837438e-06
3.93571614019e-07
7.37840716216e-08
1.55552027183e-08
1.55200742683e-09
1.97059809771e-10
1.3233849219e-11
4.88006204425e-13
0.000692423355146
0.00175959325909
0.00472926679122
0.0129139242826
0.0289243994628
0.0176265438235
-0.00522656546528
0.717252902616
1.49720173101
0.557639465703
0.0144864785445
0.000383432307685
9.77374271846e-06
5.46158590949e-07
9.02160145132e-08
1.9549793104e-08
2.07109309391e-09
2.91326763295e-10
1.81733084254e-11
6.34237755281e-13
0.000911453826356
0.002241429747
0.00571070973788
0.0143640334319
0.0282348960592
0.0120882610565
-0.0116043154402
0.653290496134
1.52260377803
0.661334296475
0.0257754853376
0.000697336472671
1.75813749821e-05
7.69680131739e-07
1.10713996004e-07
2.40979752232e-08
2.75002449939e-09
4.24943977038e-10
2.50033981807e-11
8.27824005046e-13
0.00121459975002
0.00286798613535
0.00686760036545
0.0157322752815
0.0266359738716
0.00579216883788
-0.0147373019374
0.6072039362
1.53197192603
0.758372736388
0.0413179648263
0.00133279719084
3.21791974988e-05
1.12140970241e-06
1.37126995732e-07
2.92018561194e-08
3.60950077513e-09
6.08684171493e-10
3.44761998814e-11
1.0975245219e-12
0.00161849240837
0.00364405269962
0.0081269825382
0.0167366445044
0.0237989936406
-0.00121071316236
-0.0155183612508
0.579737776935
1.53179068624
0.852645622073
0.0651509098007
0.00231198773198
6.42084712109e-05
1.81514549683e-06
1.73663196854e-07
3.52189918813e-08
4.68644925681e-09
8.53848736849e-10
4.77302537452e-11
1.49628070673e-12
0.00212337516272
0.00452974215463
0.00931924013731
0.0169978277185
0.0195261508698
-0.008596618325
-0.0138110847511
0.572538356028
1.52942996154
0.933583381251
0.103982725884
0.0038501922402
0.000129913614465
3.34913472409e-06
2.36164723784e-07
4.29394583039e-08
6.04867954688e-09
1.17250671847e-09
6.60634161059e-11
2.11385954144e-12
0.00269084288447
0.0054056481372
0.0101552173532
0.0161074107925
0.0138305744641
-0.0158497752316
-0.00912738774578
0.584926392859
1.52457117307
0.992960883928
0.157584431247
0.00641190027346
0.000258277525919
6.91725568106e-06
3.60871113936e-07
5.37001688549e-08
7.80986587139e-09
1.57972545e-09
9.11323310421e-11
3.09168990454e-12
0.00321732903455
0.00604849273558
0.0102565721694
0.013769226022
0.00699609822514
-0.0222766594589
-0.000677893276394
0.615742011481
1.51588274266
1.02975153623
0.205263874742
0.0103923717796
0.000488992607968
1.50628819032e-05
5.9897476777e-07
7.08412683759e-08
1.01755769709e-08
2.09911997835e-09
1.24941129878e-10
4.63876793782e-12
0.00352670178501
0.00616123692918
0.00928360277759
0.00996757341719
-0.000400231666219
-0.0268955239366
0.0137259455517
0.66515486937
1.50729261489
1.02632022456
0.240446961984
0.0157383861024
0.000854285215998
3.08515757628e-05
1.05421962169e-06
9.88760985949e-08
1.35312430214e-08
2.77161026076e-09
1.69977562004e-10
7.04651739654e-12
0.00342222612414
0.00549813097293
0.00713142947239
0.00508196642389
-0.00742022861216
-0.02760206606
0.0440937206673
0.704544405428
1.50508718269
1.00659612139
0.266232703783
0.022370632314
0.00138802821913
5.90488695581e-05
1.90925525675e-06
1.44797929928e-07
1.85433754706e-08
3.6645946971e-09
2.29433274267e-10
1.07019730434e-11
0.0028006560552
0.00402866820738
0.00404818441536
-0.000188624521567
-0.012928710035
-0.0220526766586
0.0962914995185
0.742540644859
1.47720863944
0.977773958191
0.284673732267
0.0299719046957
0.0021145481896
0.000105417221399
3.53375200722e-06
2.20687752414e-07
2.6331713413e-08
4.8786992715e-09
3.0744035143e-10
1.61003805919e-11
0.00173824039354
0.00199173827939
0.000552924102115
-0.00504918385535
-0.0160168931113
-0.0100595983582
0.15932952912
0.821209414724
1.43098766798
0.936103519482
0.295318027724
0.0382624209712
0.00308440358343
0.000179136767635
6.90812070463e-06
3.51106051254e-07
3.8641035381e-08
6.54357194238e-09
4.09175108568e-10
2.38657776774e-11
0.000462038780606
-0.000203100258825
-0.00272585316185
-0.00868415365748
-0.0157354747405
0.00873515959684
0.231906065181
0.91656372219
1.36617996665
0.879285412842
0.297345988478
0.0464524530573
0.00437216763004
0.000295007793931
1.30614256163e-05
5.72695976653e-07
5.8647128657e-08
8.82258199691e-09
5.40857735412e-10
3.47904986591e-11
-0.000753776973753
-0.00212220073947
-0.0051829445185
-0.0102995057403
-0.011036174784
0.0356126185719
0.325016923715
0.997679638511
1.2798163293
0.809064914605
0.290767891792
0.0537382484343
0.00589987103933
0.000463058187222
2.4173789418e-05
9.66139386222e-07
8.76004190533e-08
1.19065536334e-08
7.09561536834e-10
4.99278673615e-11
-0.00166867896704
-0.0033921107201
-0.00627415582024
-0.00903823435591
-0.000240372472507
0.0757699902431
0.445735653857
1.04381010336
1.17286048986
0.727990828243
0.276177703925
0.0592185259809
0.00756218160204
0.000698380322484
4.29221871545e-05
1.71588243285e-06
1.27157256028e-07
1.60455377893e-08
9.2468378223e-10
7.08064884353e-11
-0.00208893976964
-0.00366093715253
-0.00527867627219
-0.00300708959745
0.0228339168092
0.152871717044
0.522178848903
1.05910971903
1.05166157672
0.640547626406
0.255189116904
0.0622983010507
0.00919413550155
0.00101710185076
7.28229841011e-05
3.107623302e-06
1.89053544369e-07
2.14858039256e-08
1.19917802693e-09
9.98487808523e-11
-0.00191273132013
-0.00274597516245
-0.00188899350161
0.00805150087545
0.0563306501272
0.255675168746
0.648665786197
1.01285239133
0.914180869997
0.549197967287
0.229320966158
0.0627669647431
0.0106431805659
0.00139356658957
0.000115822217233
5.59281031022e-06
2.82707048918e-07
2.83780871344e-08
1.55182455886e-09
1.41129433701e-10
-0.000959232835251
-8.7509455363e-05
0.00563307050361
0.0296244560853
0.119771692942
0.336172198504
0.731735177901
0.913273020686
0.766480984647
0.457377118174
0.200231545262
0.0607627211788
0.0117696574563
0.00179069585377
0.00017686857321
9.9180224536e-06
4.27794191612e-07
3.68753876528e-08
2.01253472674e-09
2.01668258813e-10
0.00110755525989
0.00526430982329
0.0198125470298
0.0685206374755
0.200315589118
0.448303225371
0.722022460723
0.77474260552
0.616074923429
0.36819905761
0.169397601735
0.0566190543802
0.0124606851473
0.00216815851798
0.000257197285223
1.75515859082e-05
6.59592430925e-07
4.70440286149e-08
2.62518179884e-09
2.95019248317e-10
0.00565725020912
0.016949945425
0.0503570135056
0.122956945005
0.273299092294
0.494751745765
0.62925153207
0.615593988004
0.474447251152
0.288486615424
0.141161900842
0.0524218313369
0.0131166847761
0.00258126889317
0.000363669609842
2.89100620527e-05
1.02276999051e-06
5.73860905802e-08
3.4112873127e-09
4.46330494214e-10
5.94731698711e-27
4.73358833703e-28
3.77100974759e-26
4.39883129027e-27
2.02751588681e-25
2.55652330853e-26
8.67902750382e-25
9.58449112148e-26
3.04317591579e-24
2.92840743298e-25
9.3567372529e-24
8.07789802211e-25
2.62913677301e-23
2.08305749144e-24
6.89759513403e-23
5.10102234856e-24
1.71575253514e-22
1.20020502696e-23
4.09928041775e-22
2.74181048411e-23
9.49457611079e-22
6.12828332167e-23
2.14335623695e-21
1.33254732445e-22
4.7288403515e-21
2.83364150122e-22
1.0212127981e-20
5.94489241945e-22
2.16100909869e-20
1.22814743895e-21
4.48496147148e-20
2.49974968568e-21
9.13614523842e-20
5.01640290062e-21
1.82822220104e-19
9.93360856013e-21
3.59700510612e-19
1.94301716413e-20
6.96278687476e-19
3.76006623113e-20
1.32644102304e-18
7.19221990972e-20
2.48666882324e-18
1.35790334755e-19
4.58576465402e-18
2.52996699485e-19
8.31542372752e-18
4.65021714805e-19
1.48214501726e-17
8.43150705865e-19
2.59567718969e-17
1.50932658944e-18
4.46468865242e-17
2.66150003887e-18
7.53620792448e-17
4.61777426734e-18
1.24717268277e-16
7.87474889728e-18
2.02312528123e-16
1.31955995919e-17
3.22015481616e-16
2.17495945271e-17
5.03475711384e-16
3.53077038649e-17
7.73245307776e-16
5.64809266142e-17
1.165647286e-15
8.90561905797e-17
1.72423227541e-15
1.38598559233e-16
2.50755924386e-15
2.13574815059e-16
3.5689473028e-15
3.27534153393e-16
4.99900169428e-15
5.04167019015e-16
6.90380468967e-15
7.89831918172e-16
9.4395865153e-15
1.28282960672e-15
1.2921633147e-14
2.19812881048e-15
1.79130340413e-14
4.00679385937e-15
2.557776868e-14
7.74063195444e-15
3.82000801347e-14
1.55026042899e-14
6.02460893259e-14
3.16149716033e-14
9.99850923009e-14
6.43712656984e-14
1.71730521322e-13
1.29195906795e-13
2.9901003658e-13
2.5280407888e-13
5.18307889432e-13
4.79460463202e-13
8.83255869414e-13
8.78930777708e-13
1.46935299094e-12
1.5560732611e-12
2.38008154094e-12
2.66500143439e-12
3.75783312924e-12
4.43257060104e-12
5.80766559952e-12
7.20759048383e-12
8.84771011144e-12
1.1563381945e-11
1.33997123024e-11
1.84819464817e-11
2.03858145696e-11
2.97884540884e-11
3.14234363961e-11
4.88096855026e-11
4.96322517585e-11
8.17401885761e-11
8.78280855087e-11
1.63461231493e-10
)
;

boundaryField
{
    inletfuel
    {
        type            zeroGradient;
    }
    inletair
    {
        type            zeroGradient;
    }
    outlet
    {
        type            zeroGradient;
    }
    axis
    {
        type            empty;
    }
    leftside
    {
        type            zeroGradient;
    }
    burnerwall
    {
        type            zeroGradient;
    }
    front
    {
        type            wedge;
    }
    back
    {
        type            wedge;
    }
}


// ************************************************************************* //
