/*--------------------------------*- C++ -*----------------------------------*\
  =========                 |
  \\      /  F ield         | OpenFOAM: The Open Source CFD Toolbox
   \\    /   O peration     | Website:  https://openfoam.org
    \\  /    A nd           | Version:  dev
     \\/     M anipulation  |
\*---------------------------------------------------------------------------*/
FoamFile
{
    version     2.0;
    format      ascii;
    class       volScalarField;
    location    "0.3";
    object      edc::YStar_CH2(S);
}
// * * * * * * * * * * * * * * * * * * * * * * * * * * * * * * * * * * * * * //

dimensions      [0 0 0 0 0 0 0];

internalField   nonuniform List<scalar> 
1629
(
1.58305256985e-29
1.84558191062e-29
1.26043071885e-29
4.07220341727e-27
6.35875738737e-27
1.10714155507e-26
4.93037066042e-25
1.15746076049e-24
4.55875211166e-24
4.0804832392e-23
1.41610096816e-22
1.04514352063e-21
3.01187657692e-21
1.28364279974e-20
8.99397891332e-20
1.93240123333e-19
9.74183815149e-19
5.32330530877e-18
4.74104903467e-18
1.94976609596e-19
1.97047817577e-17
4.13845692483e-18
2.14529027985e-16
2.38742986331e-14
7.26235928291e-17
1.45080682761e-15
4.31130094353e-14
5.38257843841e-16
4.49289618993e-15
4.74273327696e-14
2.05516885167e-15
8.56569634388e-15
4.2536812391e-14
4.95729531905e-15
1.27936406539e-14
3.99834842873e-14
9.10240271461e-15
1.78250739555e-14
4.64790190643e-14
1.36835855374e-14
2.25449135921e-14
5.01180638241e-14
1.7893280269e-14
2.66239631336e-14
5.38615462332e-14
2.06315665384e-14
2.85459202941e-14
5.19821207894e-14
2.12082533028e-14
2.7703085075e-14
4.57710977135e-14
1.97179966766e-14
2.45593422769e-14
3.72871192684e-14
1.69702737482e-14
2.0404961831e-14
2.90237168154e-14
1.40168955365e-14
1.65538969751e-14
2.27950291788e-14
1.16343115188e-14
1.37487930149e-14
1.90769609389e-14
9.97414338511e-15
1.18879369584e-14
1.67682203722e-14
8.72927645435e-15
1.04126935256e-14
1.46393963756e-14
7.62971800485e-15
9.02356667458e-15
1.24412983094e-14
6.61553954577e-15
7.73276731059e-15
1.04381157273e-14
5.75972471782e-15
6.67491238236e-15
8.88942738905e-15
5.14934711065e-15
5.93987758311e-15
7.87240232373e-15
4.7889013797e-15
5.50999142422e-15
7.271313136e-15
4.62779783547e-15
5.29838777313e-15
6.9185653159e-15
4.58104087232e-15
5.19567460148e-15
6.65919155498e-15
4.56244599243e-15
5.11011246397e-15
6.4061414227e-15
4.52082571706e-15
5.00630615819e-15
6.15574172687e-15
4.45983203385e-15
4.90235916863e-15
5.95741998731e-15
4.45092500349e-15
4.88140843135e-15
5.91889239748e-15
4.59923078953e-15
5.04485085147e-15
6.14866409957e-15
5.0494414129e-15
5.56082455573e-15
6.83792025176e-15
6.05236411193e-15
6.68792863157e-15
8.29239658431e-15
8.02723468691e-15
8.89633648992e-15
1.10891211429e-14
1.17698404868e-14
1.30323101034e-14
1.62338300165e-14
1.87460805129e-14
2.07054336553e-14
2.56736319211e-14
3.19814543205e-14
3.52225173382e-14
4.33396528338e-14
5.83034588487e-14
6.39610894106e-14
7.80996642261e-14
1.14183416683e-13
1.24791601735e-13
1.5126241756e-13
2.41565756837e-13
2.62994492196e-13
3.16226618993e-13
5.51201257805e-13
5.97543416701e-13
7.12205458069e-13
1.34338635659e-12
1.44969037077e-12
1.71142649387e-12
3.43482454695e-12
3.68844994201e-12
4.30905814443e-12
8.98354886391e-12
9.59554786706e-12
1.10812255463e-11
2.33372033988e-11
2.47805743528e-11
2.82492646182e-11
5.84071449421e-11
6.16209031741e-11
6.92568190293e-11
1.368835782e-10
1.4344093922e-10
1.58838185621e-10
2.93460573152e-10
3.05467288442e-10
3.33347686692e-10
5.67167643338e-10
5.86779060006e-10
6.31887465271e-10
9.87654354874e-10
1.01670389755e-09
1.0830680371e-09
1.5770126383e-09
1.61759281187e-09
1.70992569556e-09
2.38314909176e-09
2.43896296188e-09
2.56573577483e-09
3.52482839706e-09
3.60259786911e-09
3.77895247246e-09
5.22603820043e-09
5.33646965418e-09
5.58665310472e-09
7.84601098725e-09
8.00494916298e-09
8.36427835411e-09
1.18637955193e-08
1.20903987008e-08
1.26011144372e-08
1.77436541105e-08
1.80520440275e-08
1.87431609487e-08
2.55008513328e-08
2.58744314529e-08
2.6702174456e-08
3.32468908808e-08
3.3573105601e-08
3.42769436991e-08
4.00486217558e-21
3.64916133469e-19
3.00265136909e-19
9.2486742367e-16
1.05345207963e-12
5.35236041791e-13
2.36083727852e-13
1.15450676651e-13
9.59620280119e-14
1.27603261682e-13
1.24123439751e-13
1.25233754037e-13
1.06635882773e-13
8.36936680444e-14
6.13602166333e-14
4.42202078699e-14
3.38264605485e-14
2.89235573682e-14
2.58772896473e-14
2.22388573129e-14
1.83454507368e-14
1.50195633949e-14
1.26402860258e-14
1.116293458e-14
1.02528225576e-14
9.59803893502e-15
9.03251330475e-15
8.48699814141e-15
8.00591581596e-15
7.69669394314e-15
7.67402140671e-15
8.06104028175e-15
9.08503246973e-15
1.11585592402e-14
1.50002153266e-14
2.19578658482e-14
3.44872613165e-14
5.76484340897e-14
1.02901538817e-13
1.97382435904e-13
4.08369258451e-13
9.09191076998e-13
2.15714553701e-12
5.35450253826e-12
1.35486070871e-11
3.3913161355e-11
8.1490284709e-11
1.83032074243e-10
3.76364027236e-10
7.00427120176e-10
1.18285079212e-09
1.84791771666e-09
2.75464233916e-09
4.04124183283e-09
5.95783706459e-09
8.8956806472e-09
1.33523952885e-08
1.97504464998e-08
2.78867924067e-08
3.52368661822e-08
3.26399544258e-32
7.52971909583e-31
4.02018987617e-30
7.01862702055e-30
4.04064655467e-30
9.78819514457e-31
1.20365682965e-31
8.46126095548e-33
3.73976608004e-34
1.09664950729e-35
2.19101959307e-37
3.03906623793e-39
2.99305994968e-41
2.32059827488e-43
2.76681380508e-45
1.02489725696e-46
4.99713924806e-48
2.29136953911e-49
9.58960529151e-51
1.23561302753e-52
1.58730849191e-29
2.52442909778e-28
1.70021683317e-27
3.3136976357e-27
1.59672105982e-27
2.93384544632e-28
2.66837789082e-29
1.39722787971e-30
4.73146432453e-32
1.08796286461e-33
1.74130671565e-35
1.97592216344e-37
1.61619006878e-39
9.83518715763e-42
5.60519282086e-44
8.98185034802e-46
3.91172653849e-47
1.86022011589e-48
8.04381236952e-50
1.09263145808e-51
8.20524320433e-27
3.42157251039e-26
2.65664679908e-25
5.46269357858e-25
2.14627819481e-25
3.02678541865e-26
2.10985805346e-27
8.69755496541e-29
2.38939494618e-30
4.53606590103e-32
6.09814406189e-34
5.91416075243e-36
4.20433327931e-38
2.23463397858e-40
9.65330364778e-43
6.97556244248e-45
2.28162855753e-46
1.11270550253e-47
4.9737604821e-49
6.82526924231e-51
8.39098577384e-22
7.29057471425e-24
3.74942239359e-23
5.89795035234e-23
1.8150004385e-23
2.05777011125e-24
1.17932970887e-25
4.15740062899e-27
9.93774007719e-29
1.66688585636e-30
2.00934217159e-32
1.77171092194e-34
1.1598641672e-36
5.72975865206e-39
2.21232767258e-41
8.9401649643e-44
1.47869938891e-45
6.8607351332e-47
3.16645051328e-48
5.33771375308e-50
2.68432678129e-19
1.14512592393e-20
1.08538116407e-20
7.80212513663e-21
1.6058454046e-21
1.38200446963e-22
6.37698968268e-24
1.90142757228e-25
3.92256566722e-27
5.81745262132e-29
6.34377343165e-31
5.16237490981e-33
3.17299194392e-35
1.49259735795e-37
5.49099537444e-40
1.75155629216e-42
1.21639374561e-44
4.45037253499e-46
2.07772759611e-47
4.45389562703e-49
9.62877789549e-18
1.54926812121e-16
7.98023856145e-18
1.18008488317e-18
1.33447501116e-19
8.33144910874e-21
3.06838908129e-22
7.53001788643e-24
1.32773431498e-25
1.74460945899e-27
1.73746840047e-29
1.32324997942e-31
7.76093256064e-34
3.5376668387e-36
1.2735182841e-38
3.79559380718e-41
1.43275720577e-43
3.00217723909e-45
1.33937050723e-46
3.14654183718e-48
5.28415780567e-14
2.9129675682e-13
6.84324457643e-15
2.17237915076e-16
8.20504942083e-18
3.68465243746e-19
1.08545759252e-20
2.21108306293e-22
3.3979914075e-24
4.06289963909e-26
3.80425866062e-28
2.78903184759e-30
1.60154929533e-32
7.23592267688e-35
2.60361564981e-37
7.69118580944e-40
2.23471502147e-42
2.21254525462e-44
8.40220677312e-46
1.97718206434e-47
1.90988397545e-11
5.17202804726e-16
2.22262044665e-13
1.93276101235e-15
5.74979554932e-17
4.59830745366e-18
1.76195532001e-19
3.57555288619e-21
5.37251230888e-23
6.39689719341e-25
6.04882034063e-27
4.51457734514e-29
2.65086356749e-31
1.22761078057e-33
4.53121749956e-36
1.36657572632e-38
3.68648039711e-41
1.91743951333e-43
5.15994510913e-45
1.13630814811e-46
4.61159337461e-12
1.07042736151e-10
1.92855014593e-13
2.15697005811e-15
9.04533346718e-17
7.31715542686e-18
6.08592855088e-19
2.06600332558e-20
4.1672178263e-22
5.99621627326e-24
6.48364544154e-26
5.35524915467e-28
3.40799086361e-30
1.68644088046e-32
6.58058886746e-35
2.07507226038e-37
5.60333342714e-40
1.96711161959e-42
3.14727809099e-44
6.1012428809e-46
9.68219741516e-13
9.66987615325e-12
5.17407503049e-14
6.73542077014e-16
7.7020401679e-17
8.11975491259e-18
1.16104972762e-18
6.7931410131e-20
1.99994593974e-21
3.75492189672e-23
4.95612939636e-25
4.77968136262e-27
3.44095627309e-29
1.88158636012e-31
7.9632856884e-34
2.67703161134e-36
7.47458259279e-39
2.17614189726e-41
1.94509952483e-43
3.10656235062e-45
2.57324657122e-13
8.85362006269e-13
1.53746544792e-13
7.01082774431e-16
9.06194604142e-17
9.83295405613e-18
1.97385858032e-18
1.8394097367e-19
7.64728232654e-21
1.85709586711e-22
3.00652592713e-24
3.43026709457e-26
2.84091198609e-28
1.74622382041e-30
8.14026122409e-33
2.95502891973e-35
8.66966952549e-38
2.34695283216e-40
1.24043963716e-42
1.50967805008e-44
3.9718924224e-13
1.50786231517e-11
1.7167787925e-15
3.35381676281e-14
1.13792638395e-15
4.59134690125e-17
5.54184362113e-18
6.11461631735e-19
2.9805610463e-20
8.45880817456e-22
1.59777187563e-23
2.11284340726e-25
2.00274553656e-27
1.38730524798e-29
7.16460320482e-32
2.82696130952e-34
8.78904270923e-37
2.33774561971e-39
8.20584648578e-42
7.01250901676e-44
7.31261933256e-13
2.08141057274e-11
1.35898211144e-15
3.82475186556e-14
8.36277893912e-16
8.43961569573e-17
7.44096402432e-18
1.38361260338e-18
9.62068252566e-20
3.33473581861e-21
7.40939467441e-23
1.13353303114e-24
1.22835834817e-26
9.60075943915e-29
5.50953471355e-31
2.37219240976e-33
7.8574783074e-36
2.11052838699e-38
5.56124423323e-41
3.11844120335e-43
5.20479941571e-13
7.96576559927e-12
9.53336230499e-07
1.02546397582e-15
3.71254312021e-16
9.48458981398e-17
7.74194630194e-18
2.19431661426e-18
2.3519028564e-19
1.08872784127e-20
2.94213827123e-22
5.28416532066e-24
6.59240533268e-26
5.84012080132e-28
3.73843940367e-30
1.76311118298e-32
6.25114682328e-35
1.72268601724e-37
3.7740093662e-40
1.33641647752e-42
4.75158918185e-13
4.97020291249e-12
1.1467763198e-06
8.2590034072e-16
1.07448868723e-16
4.70327596092e-17
7.933856859e-18
2.85322821909e-18
4.99053992544e-19
3.10727042598e-20
1.02853992187e-21
2.17617727993e-23
3.13406083702e-25
3.15549434029e-27
2.25987309287e-29
1.17132865239e-31
4.46497994467e-34
1.27640063943e-36
2.50827634626e-39
5.6124864193e-42
3.215609906e-13
2.03762039437e-12
5.75814291048e-09
2.01594819591e-18
3.95109173962e-15
1.37152584956e-15
4.61291230812e-17
5.22009672841e-18
1.06970843592e-18
8.43161463144e-20
3.30775627916e-21
8.11884630682e-23
1.34157771938e-24
1.53265550501e-26
1.22900763778e-28
7.01726611027e-31
2.88741801301e-33
8.63772863523e-36
1.60640187891e-38
2.37723657558e-41
2.14520278984e-13
1.14954014624e-12
2.28770593293e-10
2.84325520111e-18
3.06722943931e-15
9.18212786837e-16
7.95813919113e-17
6.40075078241e-18
1.80532696012e-18
1.92943832783e-19
9.39379122974e-21
2.71499884898e-22
5.17057918015e-24
6.71874082062e-26
6.04679971374e-28
3.81487851825e-30
1.70192851387e-32
5.37024545221e-35
9.81081179821e-38
1.04758615693e-40
1.34831874255e-13
5.88110706655e-13
3.35446515236e-11
3.07866484971e-07
5.33165053092e-17
1.01148720047e-16
4.2106586089e-17
4.62460170242e-18
2.06222884013e-18
3.52031631795e-19
2.26303587155e-20
7.96516717335e-22
1.77878830437e-23
2.65288435169e-25
2.69568040419e-27
1.88863254881e-29
9.1862282714e-32
3.08176751494e-34
5.67797016601e-37
4.87005492283e-40
8.75789469115e-14
3.29065232645e-13
9.87146482039e-12
7.92608289699e-07
0
1.55715748651e-17
6.51193833571e-18
2.11014741433e-18
1.76086992246e-18
4.98788589353e-19
4.61659609985e-20
2.04797562311e-21
5.4600279393e-23
9.44377752264e-25
1.09118736088e-26
8.54090403366e-29
4.55759139039e-31
1.63860547486e-33
3.10399091554e-36
2.35970719534e-39
6.59215975631e-14
2.49042490042e-13
5.50027775587e-12
8.76726037303e-07
6.23676077773e-16
5.66624976609e-17
4.54217317865e-19
4.48971484729e-19
9.54021110033e-19
5.9491636747e-19
8.2677426728e-20
4.73996687482e-21
1.51640708023e-22
3.05723763962e-24
4.03499216224e-26
3.54533622031e-28
2.08739805195e-30
8.10306124417e-33
1.60151876303e-35
1.16133161167e-38
5.93376471918e-14
2.27472383137e-13
3.82358408824e-12
3.24622350156e-07
1.17509128525e-20
9.19986802621e-16
3.91273360599e-16
2.26333213188e-17
1.80255380558e-18
8.73006926526e-19
1.50287966725e-19
1.04351016465e-20
3.92651598106e-22
9.14933974129e-24
1.37678580825e-25
1.36022895284e-27
8.87187848521e-30
3.74177036664e-32
7.80553817731e-35
5.67074483594e-38
5.3847244499e-14
1.90859035399e-13
2.40185353615e-12
3.0737744081e-08
7.59643640136e-16
9.76642352042e-16
1.75634943195e-16
2.75084579046e-17
1.55085777527e-18
9.43713023303e-19
2.44278435281e-19
2.12993950333e-20
9.48332910666e-22
2.54641611137e-23
4.36200931009e-25
4.85009293662e-27
3.51527471972e-29
1.61935585688e-31
3.59914352217e-34
2.70582624009e-37
4.45207514081e-14
1.37228905736e-13
1.29702922209e-12
3.30193999725e-09
2.33265718784e-07
0
5.76246608399e-17
3.21331802338e-18
5.43797069706e-19
7.29501231404e-19
3.08992538521e-19
3.85626743689e-20
2.09394925701e-21
6.558579588e-23
1.28377039234e-24
1.61100060789e-26
1.30214599996e-28
6.58504939055e-31
1.57216369127e-33
1.2509123656e-36
3.50282170376e-14
9.60704686912e-14
7.51661839616e-13
6.48952673914e-10
5.13399002889e-07
0
5.15012852734e-17
8.21075304111e-20
3.38518956951e-20
4.47151791929e-19
2.99125297511e-19
6.00402855057e-20
4.17995483412e-21
1.55624451002e-22
3.50752775534e-24
4.98982730524e-26
4.51672511737e-28
2.52017053855e-30
6.51122735322e-33
5.57618319135e-36
2.7674655719e-14
7.08045904036e-14
5.06091774169e-13
2.06131676507e-10
6.12124648931e-07
1.69161314894e-15
3.94705153859e-16
7.89085449326e-17
4.84928402181e-19
3.49364525027e-19
3.05855527569e-19
8.59217249012e-20
7.76667713839e-21
3.42787996245e-22
8.9268852014e-24
1.44432828168e-25
1.46960791959e-27
9.08940581191e-30
2.55825465613e-32
2.38980408259e-35
2.28490272441e-14
5.7341933421e-14
4.01914948342e-13
8.8239671912e-11
4.35968383742e-07
4.85653695945e-20
6.92719445519e-16
1.6946401086e-16
1.03800517795e-17
3.8409330738e-19
2.95997868602e-19
1.13269834812e-19
1.34494631084e-20
7.0472680957e-22
2.12432268261e-23
3.91735994917e-25
4.49414603092e-27
3.09364942301e-29
9.54075165512e-32
9.82850646648e-35
1.99782509691e-14
5.07039353597e-14
3.60313099327e-13
4.66622358056e-11
1.59267963943e-07
5.3771525395e-17
0
1.49553178429e-16
4.97249473863e-18
2.84507124631e-19
2.61472422035e-19
1.28759602783e-19
2.07980249448e-20
1.34651440856e-21
4.73140293162e-23
9.97615782484e-25
1.29421040569e-26
9.95106199072e-29
3.37965981847e-31
3.87433106776e-34
1.80505806087e-14
4.63773981983e-14
3.30380848732e-13
2.78666725056e-11
5.9584900066e-08
3.84180403001e-10
0
5.01680442828e-17
2.81362098021e-19
2.15449196891e-20
1.8196575741e-19
1.21547325127e-19
2.85747700596e-20
2.37457047426e-21
9.87574654456e-23
2.39053783202e-24
3.51742263013e-26
3.03017311397e-28
1.13817781018e-30
1.46285402168e-33
1.64600014797e-14
4.26759632683e-14
3.0388144068e-13
1.8695761386e-11
2.65659835132e-08
3.07165069281e-07
2.98067383783e-13
3.45502837239e-17
0
6.24897416553e-19
1.12297340168e-19
9.73989558323e-20
3.612682759e-20
3.84859194037e-21
1.93110751872e-22
5.401293383e-24
9.0420515704e-26
8.75057083596e-28
3.64792514959e-30
5.28875080733e-33
1.50513263312e-14
3.98580597858e-14
2.86420094021e-13
1.38770227923e-11
1.28373995725e-08
4.20369638682e-07
3.00290131669e-17
1.92954489342e-16
2.79381778573e-17
6.98336353102e-20
5.6556909068e-20
7.77434443445e-20
4.20125414616e-20
5.8379343296e-21
3.55247635317e-22
1.15352379741e-23
2.2024642684e-25
2.39976385664e-27
1.11358008056e-29
1.83017210388e-32
1.38481681063e-14
3.8113076597e-14
2.770297276e-13
1.08832636245e-11
6.34072198993e-09
4.47350698682e-07
3.44798495456e-20
3.99214870912e-16
8.70226415405e-17
2.14317994798e-18
7.91310690604e-20
7.25843091699e-20
4.37126854394e-20
8.52672510754e-21
6.16931965152e-22
2.3323122682e-23
5.08806978029e-25
6.25355475835e-27
3.23838378804e-29
6.05797118234e-32
1.29987009698e-14
3.79149368473e-14
2.7887968413e-13
9.17097787509e-12
3.49847744442e-09
3.34460546254e-07
3.65166813799e-18
0
1.23663883866e-16
2.17230847149e-18
3.34409052341e-20
6.07081159937e-20
4.22228308006e-20
1.18917369191e-20
1.01065032716e-21
4.46941327851e-23
1.11574812212e-24
1.54914217476e-26
8.97104046875e-29
1.9165229404e-31
1.26719769395e-14
3.97904356442e-14
2.96345177767e-13
8.47229596229e-12
2.25869281163e-09
2.27743924667e-07
7.60759503454e-17
4.4470052746e-14
2.02420169046e-16
1.84134997483e-19
5.34687445268e-19
6.9475115084e-20
3.89654012563e-20
1.41276336912e-20
1.55440127612e-21
8.12148226449e-23
2.32568959135e-24
3.65154738228e-26
2.36810288261e-28
5.79239371805e-31
1.30337788303e-14
4.41064559979e-14
3.30018420548e-13
8.43670663141e-12
1.64542239284e-09
1.57168216254e-07
3.26441944205e-14
5.42883774249e-12
1.17799609346e-16
7.37066371662e-18
2.97041460419e-20
8.93842952373e-20
2.94870650867e-20
1.50882840576e-20
2.24175166294e-21
1.40759357325e-22
4.61509371446e-24
8.20073549452e-26
5.96118178374e-28
1.67263986315e-30
1.41994602843e-14
5.10638065503e-14
3.7809836957e-13
8.74735209367e-12
1.25017110096e-09
1.03482318575e-07
1.45295921371e-07
1.46712356409e-21
7.73803101668e-16
3.84655923549e-17
1.93652105669e-19
1.31802124346e-19
2.5288270582e-20
1.63583824458e-20
3.03261989156e-21
2.31560680676e-22
8.72282084388e-24
1.7562133897e-25
1.43201439151e-27
4.6165501174e-30
1.65795223842e-14
6.20030772438e-14
4.50359804341e-13
9.5416787324e-12
1.01493482663e-09
7.00674960803e-08
3.12291730468e-07
9.18066897908e-18
1.29639227292e-15
1.5372362333e-16
1.10594723647e-18
3.15023700533e-19
2.397444976e-20
1.71091030033e-20
3.85784463939e-21
3.61424599083e-22
1.57080357879e-23
3.58892466168e-25
3.28525051889e-27
1.21865604894e-29
2.09012710344e-14
7.94296169128e-14
5.64571015081e-13
1.10754730059e-11
8.98292124603e-10
5.06219630642e-08
3.33352613498e-07
7.84456106969e-17
4.50638533387e-15
2.5389629998e-16
2.32731044107e-18
4.25976172998e-19
2.77368604455e-20
1.58066039133e-20
4.67289093688e-21
5.34834830902e-22
2.69997484599e-23
7.01149246458e-25
7.20898418956e-27
3.0808233659e-29
2.84495501786e-14
1.07722187187e-13
7.49215496875e-13
1.37551832248e-11
8.72109887227e-10
3.98615858031e-08
3.19797219717e-07
5.97227588686e-18
1.33422960439e-12
2.95334523177e-16
2.96567928009e-18
3.90882727793e-19
3.45014153388e-20
1.25939547042e-20
5.60682687208e-21
7.51830427711e-22
4.44132569082e-23
1.31314273794e-24
1.51675389261e-26
7.47429534907e-29
4.14698291066e-14
1.5466870686e-13
1.05327552878e-12
1.82256809551e-11
9.16120310807e-10
3.3627610358e-08
2.91394110086e-07
5.23850138957e-17
2.08598584151e-11
1.7922771602e-15
2.22184404318e-17
1.66111650279e-19
3.2626708463e-20
1.23138650617e-20
6.55753202478e-21
1.00491370106e-21
7.0050896579e-23
2.36260162113e-24
3.0662488694e-26
1.74359671479e-28
6.42659324415e-14
2.35080200393e-13
1.56745513139e-12
2.55361562498e-11
1.01605565949e-09
2.94352947095e-08
2.5445893388e-07
1.11122019084e-16
2.40741173627e-14
4.57806979043e-15
8.11273635163e-17
5.13517138649e-19
8.10948439723e-20
1.17499330745e-20
6.95225086628e-21
1.27402450281e-21
1.05888232727e-22
4.08607499008e-24
5.96137277818e-26
3.91533856508e-28
1.05798031605e-13
3.79307458998e-13
2.47409093668e-12
3.75891392368e-11
1.17274643915e-09
2.64897519998e-08
2.16814604155e-07
5.86979554603e-16
9.21385976325e-17
1.06191864409e-14
2.53092946924e-16
1.26601907241e-18
8.79938298161e-20
1.40634711192e-20
6.15992897249e-21
1.5574995038e-21
1.53948654088e-22
6.79531885264e-24
1.11517183423e-25
8.46882095818e-28
1.86007204165e-13
6.5281197251e-13
4.15331643943e-12
5.7765759644e-11
1.39756452389e-09
2.44857067472e-08
1.84405599392e-07
7.97958364088e-12
1.25982770004e-21
4.33978448433e-14
7.17427687778e-16
2.75117042275e-18
9.66845913097e-20
1.56957639937e-20
6.3006716177e-21
1.80911503222e-21
2.19373671012e-22
1.08863974972e-23
2.01013429706e-25
1.76671662339e-27
3.51243758274e-13
1.20317160261e-12
7.40744775644e-12
9.18590619122e-11
1.70853937172e-09
2.32683611787e-08
1.59371149199e-07
1.14385194712e-08
1.72806248659e-20
1.07747483811e-12
1.80623843379e-15
5.2179782991e-18
1.0837834408e-19
1.84689801861e-20
6.54325289537e-21
1.9826595589e-21
3.00869743849e-22
1.68235915145e-23
3.49869409544e-25
3.56176594405e-27
7.14056207585e-13
2.37504591947e-12
1.39274301128e-11
1.49437892066e-10
2.12996060033e-09
2.27673810957e-08
1.41610712115e-07
9.98630467174e-08
4.37511777915e-20
1.87763842352e-11
7.26610201121e-15
2.31902613941e-17
2.16697085474e-19
2.37314532514e-20
6.30197726735e-21
2.09015128868e-21
3.97025745262e-22
2.5103951972e-23
5.88958581912e-25
6.95135695021e-27
1.55786330716e-12
4.98700280029e-12
2.71919959579e-11
2.45566742344e-10
2.68998421493e-09
2.2890727449e-08
1.29109625343e-07
1.5617138933e-07
4.37114536012e-19
5.39833521433e-12
1.98006631146e-14
9.73425004348e-17
1.68089260232e-19
3.14009662397e-20
6.54474879312e-21
2.16123518687e-21
5.06137538796e-22
3.61804865743e-23
9.59426300312e-25
1.31436024742e-26
3.60761398289e-12
1.09640719541e-11
5.4076386473e-11
4.02735860549e-10
3.41829616946e-09
2.3544341314e-08
1.20287077991e-07
1.76437759636e-07
5.85857899532e-18
1.45479930599e-13
4.41028264267e-14
3.21054742449e-16
4.69137957639e-19
4.44689022461e-20
6.83482996265e-21
2.18439911156e-21
6.25423893819e-22
5.03788798163e-23
1.51269016151e-24
2.40811918537e-26
8.69284808598e-12
2.46667879781e-11
1.07362085943e-10
6.52145512245e-10
4.34555312777e-09
2.47061589194e-08
1.13749478999e-07
1.81759527887e-07
0
0
7.66745564517e-14
1.12600188366e-15
1.46772604064e-18
6.2545124238e-20
7.00291862258e-21
2.18124859275e-21
7.51048720006e-22
6.78511441683e-23
2.30985985421e-24
4.27695870094e-26
2.12176717703e-11
5.53218657997e-11
2.08827269713e-10
1.032590916e-09
5.49944448588e-09
2.63690858682e-08
1.10131048796e-07
1.7917576548e-07
0
1.48448504414e-16
2.49441543767e-13
2.67316803627e-15
5.51476638366e-18
9.02745742861e-20
9.09021638783e-21
2.19805202392e-21
8.81649029142e-22
8.86100937457e-23
3.42086346222e-24
7.36973910139e-26
5.09301480332e-11
1.20569576305e-10
3.91333573463e-10
1.58583715906e-09
6.90315964899e-09
2.85754801425e-08
1.08812256301e-07
1.71277578456e-07
0
8.88580810899e-17
1.50402666079e-12
5.43488950071e-15
2.27067933431e-17
1.77835420889e-19
1.42642340252e-20
2.34287563958e-21
1.021837725e-21
1.12665563328e-22
4.92324140244e-24
1.23311664919e-25
1.16886325396e-10
2.49697568892e-10
6.96903537424e-10
2.34915589693e-09
8.58081469152e-09
3.14115585441e-08
1.09277144658e-07
1.58651684541e-07
0
1.07384038567e-17
5.22912848562e-12
1.04797322155e-14
9.3332343849e-17
4.3962789064e-19
2.35912151242e-20
2.89330920577e-21
1.18935766086e-21
1.40349881977e-22
6.90148333164e-24
2.00460384023e-25
2.50399616613e-10
4.82776501514e-10
1.16866446353e-09
3.34961693799e-09
1.05722479317e-08
3.50083118908e-08
1.1094171584e-07
1.40225393143e-07
1.17129878757e-17
1.08052336954e-17
5.79769083515e-12
1.86349200507e-14
3.09713829648e-16
7.38382659284e-19
3.79553943642e-20
4.01366065203e-21
1.4199729437e-21
1.72817540365e-22
9.45257487221e-24
3.16751225328e-25
4.91931522817e-10
8.6193970432e-10
1.84014468137e-09
4.61012026457e-09
1.29635424571e-08
3.95641067212e-08
1.13144743546e-07
1.107259257e-07
5.28606987496e-18
3.50988898241e-18
3.33748928966e-12
3.34731670794e-14
8.39592014799e-16
2.74494009221e-18
5.76886563997e-20
6.11293304718e-21
1.76949884372e-21
2.12599838783e-22
1.270238866e-23
4.8688412222e-25
8.79197045139e-10
1.41921966688e-09
2.73577723482e-09
6.17760143464e-09
1.59415893004e-08
4.54259333815e-08
1.15090811663e-07
4.83772048798e-08
3.4410575304e-18
1.66567332041e-18
1.45984653269e-12
6.67516213402e-14
1.94833790434e-15
9.60112986509e-18
1.18057227232e-19
9.89838129264e-21
2.31232710781e-21
2.64019380038e-22
1.68318300798e-23
7.29177427717e-25
1.43768021213e-09
2.17871434072e-09
3.89535917735e-09
8.17118902547e-09
1.9827368896e-08
5.2892746503e-08
1.15618031952e-07
1.71045056656e-09
2.6826814336e-18
5.73868896898e-18
6.11924621421e-13
1.47599793907e-13
4.04812150719e-15
3.04583310278e-17
3.00830466754e-19
1.67787622569e-20
3.13243929703e-21
3.33451586051e-22
2.21083723305e-23
1.06664037675e-24
2.19593496914e-09
3.18707069978e-09
5.41861676231e-09
1.08186801246e-08
2.50320737487e-08
6.18162262435e-08
1.14960926706e-07
8.8792028292e-13
4.00151351356e-18
3.13156221203e-18
2.93818588368e-13
3.30578094087e-13
7.81602964568e-15
9.33157191386e-17
3.36182510542e-19
2.84930776404e-20
4.26949422609e-21
4.28949278564e-22
2.89171141806e-23
1.52956151729e-24
3.22761295471e-09
4.55969650077e-09
7.50673622255e-09
1.44680320663e-08
3.19290810613e-08
7.11560100813e-08
1.11759517599e-07
0
1.14940481156e-18
7.85894780759e-18
1.73583131419e-13
6.50396870062e-13
1.41604379552e-14
2.49728164885e-16
1.21198073346e-18
4.42846504208e-20
5.7031720745e-21
5.61669529978e-22
3.78140336536e-23
2.16121406124e-24
4.69450961772e-09
6.51861822082e-09
1.04848800368e-08
1.9552101336e-08
4.05928582004e-08
7.89178644792e-08
9.84930088515e-08
0
3.12299037369e-19
2.06004111243e-19
1.2344227245e-13
1.0720751471e-12
2.35970211292e-14
6.13389947427e-16
3.90404213691e-18
9.57673187029e-20
7.99434526494e-21
7.48046020989e-22
4.96047718971e-23
3.03047734185e-24
6.87722786011e-09
9.41507076444e-09
1.47962138817e-08
2.64635324973e-08
5.03273583734e-08
8.26250657804e-08
5.31579089231e-08
0
1.06284863584e-19
0
1.00586302661e-13
1.46835729598e-12
3.66547083884e-14
1.38129420878e-15
1.17090402333e-17
2.03177631455e-19
1.25151443724e-20
1.01641460721e-21
6.56086562446e-23
4.25783618726e-24
1.02017516828e-08
1.37436968704e-08
2.09593989681e-08
3.52972897561e-08
5.92003591992e-08
8.05322367816e-08
3.98279424832e-12
0
4.19123981845e-20
9.74855323692e-19
1.00148533349e-13
1.72394115721e-12
5.34095038916e-14
2.87517354715e-15
3.28993022172e-17
4.45950172684e-19
1.92391377388e-20
1.41001838456e-21
8.80261825069e-23
6.0672155747e-24
1.51758464174e-08
1.99770661094e-08
2.91204064241e-08
4.48404265584e-08
6.45232645463e-08
6.15826375808e-08
4.86974768329e-17
2.28899345767e-18
1.47105980357e-17
1.2523729164e-19
1.19445902992e-13
1.81527852832e-12
7.35746543221e-14
5.32674620544e-15
8.33251986384e-17
1.02375404926e-18
3.10292376424e-20
1.99533766357e-21
1.20612971493e-22
8.88943122018e-24
2.214334193e-08
2.81203155511e-08
3.82229212526e-08
5.20000554357e-08
6.10987669297e-08
3.08073801764e-11
0
5.46473526004e-19
3.0045042889e-18
2.05276543727e-20
1.58571414645e-13
1.77534794483e-12
9.62698609989e-14
8.76395512405e-15
2.07363177272e-16
2.43949068773e-18
5.33508573282e-20
2.88416465486e-21
1.70029961636e-22
1.35697823095e-23
3.05929591748e-08
3.67269216384e-08
4.51375828047e-08
5.11693362547e-08
9.79538370743e-09
7.20830603745e-18
3.00348753197e-18
0
1.19552311981e-18
4.72632156114e-18
2.13432230919e-13
1.65013563491e-12
1.19485299243e-13
1.29145243608e-14
4.57014379849e-16
4.63893383612e-18
9.7168574957e-20
4.24745621747e-21
2.47906404496e-22
2.19596296336e-23
3.72173953826e-08
4.04322117494e-08
3.96184419582e-08
3.77809145345e-09
0
4.26596698156e-18
1.46226321896e-18
5.57721758044e-16
0
9.25981512884e-17
2.5206385734e-13
1.53776406796e-12
1.50118034304e-13
1.85232751274e-14
9.44352449125e-16
1.14976501226e-17
1.78134632907e-19
6.16971583881e-21
3.68873559765e-22
3.80619728489e-23
8.9011114867e-51
3.90441051368e-52
4.91668706213e-50
9.48355949715e-48
3.23393670963e-49
2.83854202359e-50
1.78862772081e-48
1.43223830664e-49
8.62313738334e-48
5.86817183239e-49
3.8610999802e-47
2.237103577e-48
1.65688377544e-46
8.26425389167e-48
6.86953374723e-46
2.99562262406e-47
2.7535422289e-45
1.07218732122e-46
1.06675739439e-44
3.82410264491e-46
4.00095749842e-44
3.21227677653e-45
1.465786861e-43
4.90718903693e-42
5.36775672115e-43
2.28288178351e-44
2.03975412147e-42
1.02860914726e-43
8.34073623698e-42
4.9357301337e-43
3.71089168027e-41
2.48419951327e-42
1.76111931506e-40
1.28420182426e-41
8.63381581007e-40
6.69807785207e-41
4.25711961551e-39
3.48217382234e-40
2.07479634655e-38
1.7911996972e-39
9.8933400877e-38
9.05428291401e-39
4.58679924591e-37
4.46975722317e-38
2.05874982218e-36
2.14558668348e-37
8.9183044953e-36
9.98023601063e-37
3.71986946745e-35
4.4862090498e-36
1.49054496241e-34
1.94567614422e-35
5.72881071751e-34
8.11242213145e-35
2.10857597155e-33
3.24268946797e-34
7.42154570715e-33
1.23982351372e-33
2.49550274607e-32
4.52697986163e-33
8.01378842479e-32
1.57711430391e-32
2.45815300932e-31
5.24102668158e-32
7.20643037299e-31
1.66184922291e-31
2.02152450702e-30
5.03232139324e-31
5.43574673415e-30
1.45740815678e-30
1.40363898265e-29
4.04347459382e-30
3.48513373847e-29
1.07618607076e-29
8.3278733727e-29
2.75064637461e-29
1.91743580811e-28
6.75916340717e-29
4.26093053931e-28
1.5991272012e-28
9.1525434073e-28
3.6475155769e-28
1.90183410742e-27
8.02778820965e-28
3.8236464692e-27
1.70523535526e-27
7.43884397291e-27
3.49578312167e-27
1.40071564437e-26
6.91540624722e-27
2.55294998572e-26
1.3197012605e-26
4.50245769787e-26
2.42809234986e-26
7.68020954468e-26
4.30434101385e-26
1.26695885464e-25
7.3501639258e-26
2.02296830098e-25
1.21010261074e-25
3.13333070806e-25
1.9255095759e-25
4.72715165351e-25
2.97512932117e-25
6.99132574502e-25
4.49670497504e-25
1.02340635232e-24
6.72198598776e-25
1.50164220366e-24
1.0080814748e-24
2.24001699731e-24
1.53889564486e-24
3.45187634523e-24
2.43177846162e-24
5.56036711759e-24
4.0155829281e-24
9.50360665662e-24
6.98129873336e-24
1.93784922567e-23
1.57130650642e-23
)
;

boundaryField
{
    inletfuel
    {
        type            calculated;
        value           uniform 0;
    }
    inletair
    {
        type            calculated;
        value           uniform 0;
    }
    outlet
    {
        type            calculated;
        value           uniform 0;
    }
    axis
    {
        type            empty;
    }
    leftside
    {
        type            calculated;
        value           uniform 0;
    }
    burnerwall
    {