/*--------------------------------*- C++ -*----------------------------------*\
  =========                 |
  \\      /  F ield         | OpenFOAM: The Open Source CFD Toolbox
   \\    /   O peration     | Website:  https://openfoam.org
    \\  /    A nd           | Version:  dev
     \\/     M anipulation  |
\*---------------------------------------------------------------------------*/
FoamFile
{
    version     2.0;
    format      ascii;
    class       volScalarField;
    location    "0.3";
    object      edc::YStar_O;
}
// * * * * * * * * * * * * * * * * * * * * * * * * * * * * * * * * * * * * * //

dimensions      [0 0 0 0 0 0 0];

internalField   nonuniform List<scalar> 
1629
(
4.69903706588e-20
4.49526898383e-20
3.65801105347e-20
6.50690775543e-18
8.99129163748e-18
1.56384640076e-17
4.85817057137e-16
1.03695337652e-15
3.81232358101e-15
2.69252057829e-14
8.66201878482e-14
6.13343743601e-13
1.02989355422e-12
3.45726831526e-12
1.97677239582e-11
3.91107767318e-11
1.42774320935e-10
7.36538324521e-10
1.14484078979e-09
4.25903852657e-09
1.9864601413e-08
1.95419508483e-08
7.05341757336e-08
3.13138405783e-07
4.68928023594e-08
1.13107936596e-07
2.9044625365e-07
6.47018158466e-08
1.10675744103e-07
1.83455837769e-07
6.46238371747e-08
8.47348129908e-08
1.00943948145e-07
5.22912056743e-08
5.77593350253e-08
5.92044986516e-08
3.65569749988e-08
3.72750714494e-08
3.93507050175e-08
2.22675990581e-08
2.1774551655e-08
2.22847200089e-08
1.1746392554e-08
1.10022941881e-08
1.02647868017e-08
5.35497827679e-09
4.8551177435e-09
4.22949805014e-09
2.18070759981e-09
2.0333844505e-09
2.05682321871e-09
8.04374441818e-10
7.87540677657e-10
9.03284886506e-10
2.61980833485e-10
2.67891121227e-10
2.99935737972e-10
7.16327950556e-11
7.63226023873e-11
7.29289961747e-11
1.66978082265e-11
1.93366924042e-11
1.79387731136e-11
3.92741952195e-12
4.95178871279e-12
3.82080223502e-12
1.97474175398e-13
6.84099289726e-13
3.66217745253e-13
1.21336443077e-14
6.30733811235e-13
7.94860574163e-13
1.51953731891e-13
4.28922401744e-13
3.37337776018e-12
1.41186890818e-12
2.59562253944e-12
6.17086474757e-12
3.74046390569e-12
5.53787926108e-12
1.15779491307e-11
8.02856381834e-12
1.10220732663e-11
2.0369366394e-11
1.56739892128e-11
2.02275843935e-11
3.30564482267e-11
2.69844991269e-11
3.29073353388e-11
4.82171035126e-11
4.09328684366e-11
4.769500613e-11
6.4270792492e-11
5.60380880364e-11
6.31966554127e-11
8.0301848849e-11
7.14427405243e-11
7.88955185396e-11
9.65986204365e-11
8.77995768655e-11
9.58219873675e-11
1.14934641042e-10
1.07234826091e-10
1.16282572157e-10
1.38074199286e-10
1.33314199021e-10
1.44153863413e-10
1.70359042762e-10
1.71769523833e-10
1.85410958848e-10
2.183927416e-10
2.31423014327e-10
2.49312535275e-10
2.92358170209e-10
3.25444967646e-10
3.493346239e-10
4.06466093251e-10
4.71502330795e-10
5.03474662991e-10
5.79331732087e-10
6.92745018728e-10
7.35346921286e-10
8.35076880147e-10
1.0227108516e-09
1.07897602121e-09
1.2099422709e-09
1.51690308266e-09
1.59187600105e-09
1.76565330497e-09
2.27133095322e-09
2.3729103083e-09
2.6076811241e-09
3.44604228068e-09
3.58619889669e-09
3.90947694993e-09
5.2926115408e-09
5.48858761395e-09
5.93960165443e-09
8.17090994475e-09
8.44495762811e-09
9.0735794274e-09
1.25159538637e-08
1.28912899484e-08
1.37481139644e-08
1.86908388438e-08
1.91803725105e-08
2.02900845026e-08
2.66577090012e-08
2.72462007872e-08
2.85689609954e-08
3.55209898349e-08
3.61507959219e-08
3.75527776209e-08
4.32799571765e-08
4.38581915594e-08
4.51319867556e-08
4.73585114272e-08
4.77966885163e-08
4.87509020247e-08
4.60448537274e-08
4.63072737109e-08
4.68709389542e-08
3.97507428487e-08
3.98660361014e-08
4.01080581927e-08
3.07270002468e-08
3.07558850051e-08
3.08129152867e-08
2.16763342494e-08
2.1681543867e-08
2.16921027988e-08
1.48290567829e-08
1.48703917092e-08
1.49681526589e-08
1.21114007388e-08
1.22678622776e-08
1.26317885935e-08
1.66475651144e-08
1.70841569685e-08
1.80924397403e-08
3.78773474356e-08
3.90574325323e-08
4.17737948146e-08
1.10243120681e-07
1.13642067164e-07
1.21441045347e-07
3.58124334864e-07
3.68554034953e-07
3.92442818512e-07
3.44981576756e-12
8.13258420867e-11
2.57397171282e-09
6.64275848321e-08
1.10410190085e-06
5.62677058468e-07
2.30244674258e-07
9.25880314834e-08
6.61387481275e-08
5.86015319302e-08
3.00743590053e-08
1.07269608949e-08
4.16791295647e-09
2.70543359022e-09
1.09340377923e-09
2.63589999191e-10
5.44569331447e-11
5.48209734006e-12
2.20606051391e-12
6.02820221333e-13
5.10971329983e-12
9.35583041213e-12
1.71974939339e-11
2.72834748816e-11
4.15444038364e-11
5.79646566124e-11
7.50182873779e-11
9.16122836047e-11
1.07845460207e-10
1.25191850244e-10
1.46205146468e-10
1.74120341013e-10
2.13862949269e-10
2.73093313024e-10
3.63065730574e-10
4.99144960353e-10
7.00278834474e-10
9.91805288616e-10
1.41368626071e-09
2.03418854812e-09
2.96871245129e-09
4.40453354391e-09
6.62710851935e-09
1.00259375123e-08
1.50342849476e-08
2.19361769869e-08
3.05031705665e-08
3.9570571295e-08
4.69342985574e-08
5.00766150187e-08
4.76383000193e-08
4.04272406467e-08
3.08820780487e-08
2.17089642511e-08
1.51260408865e-08
1.31968528432e-08
1.96371479783e-08
4.59125087481e-08
1.33267821084e-07
4.28534722414e-07
1.90316265615e-16
9.4215120727e-16
2.2959604878e-15
3.31956387519e-15
2.78127362193e-15
1.49563138385e-15
5.65406320171e-16
1.59682071274e-16
3.53966103527e-17
6.33557123713e-18
9.29193908294e-19
1.12819733162e-19
1.14335018759e-20
9.74490641374e-22
7.04287386947e-23
4.36025996718e-24
2.34585534286e-25
1.11584433646e-26
4.77715753916e-28
1.08987792379e-29
3.39700280655e-15
1.58507327798e-14
4.52507534603e-14
7.17318906096e-14
5.64496000398e-14
2.6877511191e-14
8.82807676383e-15
2.16482262629e-15
4.2111887871e-16
6.67529842852e-17
8.74979092575e-18
9.58927275831e-19
8.86770851617e-20
6.97949430862e-21
4.72025098522e-22
2.77620662382e-23
1.44516067081e-24
6.80042212791e-26
2.88211373793e-27
6.56539649607e-29
6.71962548349e-14
1.65286001729e-13
5.35893140311e-13
9.15260501197e-13
6.6949999322e-13
2.83759672939e-13
8.22795178316e-14
1.79668652284e-14
3.14884822719e-15
4.52905980714e-16
5.4291186603e-17
5.48730449194e-18
4.7213700614e-19
3.49007332963e-20
2.2396135468e-21
1.26478359381e-22
6.41337384961e-24
3.00589942546e-25
1.27680025666e-26
2.75090342245e-28
2.33702328474e-12
2.15804167728e-12
5.94725105393e-12
9.39993482621e-12
6.28019789617e-12
2.42138544167e-12
6.3988024968e-13
1.29213448221e-13
2.10824883196e-14
2.8429833394e-15
3.21863764441e-16
3.09432901594e-17
2.54969293035e-18
1.8169376245e-19
1.13167717979e-20
6.2510623235e-22
3.13046706691e-23
1.4705292763e-24
6.40184625556e-26
1.6561676255e-27
1.32918900686e-10
8.87577262305e-11
9.61019243929e-11
1.0649702381e-10
6.05101969381e-11
2.07810490916e-11
4.95189446958e-12
9.16792700703e-13
1.38257015916e-13
1.74370292401e-14
1.86819892168e-15
1.71786225379e-16
1.36648950463e-17
9.47691043265e-19
5.78657176936e-20
3.15593506851e-21
1.57283347563e-22
7.43559004488e-24
3.32824529888e-25
1.07861568044e-26
6.66063875173e-09
1.01802729804e-08
2.57553266297e-09
1.285803214e-09
5.63134008058e-10
1.71061634602e-10
3.67008680163e-11
6.12949601748e-12
8.46851174137e-13
9.96420879449e-14
1.01238723991e-14
8.94882487526e-16
6.91831050084e-17
4.70444829711e-18
2.83695826712e-19
1.53775097964e-20
7.66252797297e-22
3.64745460894e-23
1.65701700816e-24
6.0605528883e-26
2.11524240732e-07
4.42784173554e-07
8.09410199717e-08
1.70522516845e-08
4.30632066217e-09
1.2008716801e-09
2.38810335216e-10
3.59797612363e-11
4.56090971528e-12
5.04316276713e-13
4.91246675594e-14
4.22514109017e-15
3.21248094707e-16
2.16509076621e-17
1.30140103104e-18
7.06130525509e-20
3.53292674185e-21
1.69131162465e-22
7.67945180065e-24
2.95012196222e-25
1.10600762093e-06
0.00228580625259
2.42624181419e-07
1.0787620362e-07
1.79968989949e-08
4.86947932912e-09
1.09059750639e-09
1.59849966036e-10
1.9386959505e-11
2.09272061273e-12
2.02130538038e-13
1.73951859535e-14
1.33009607367e-15
9.04102482961e-17
5.48928190076e-18
3.00993763975e-19
1.52017584805e-20
7.31668520631e-22
3.28652192267e-23
1.26161434517e-24
5.2728537288e-07
1.81841330458e-07
1.78341739402e-07
9.51519944877e-08
2.27515725608e-08
6.07932132514e-09
1.89774331008e-09
3.76995336361e-10
5.4211187439e-11
6.47359265565e-12
6.69239906441e-13
6.05411290372e-14
4.81309878908e-15
3.37731285413e-16
2.10569720377e-17
1.18012264987e-18
6.0565597865e-20
2.93510256651e-21
1.29804184587e-22
4.82573880251e-24
1.59451126052e-07
3.66884632788e-08
5.98810429498e-08
4.75644577789e-08
2.0723454681e-08
6.58939278875e-09
2.4920321506e-09
6.53833117822e-10
1.16319369087e-10
1.60597492935e-11
1.84511299286e-12
1.80891658973e-13
1.53170055817e-14
1.13037149027e-15
7.33982636982e-17
4.24729830727e-18
2.22930833179e-19
1.09061989625e-20
4.74463720641e-22
1.68126618408e-23
4.22012893374e-08
3.85129036175e-09
6.73414272688e-08
3.65068938915e-08
1.96260676296e-08
7.32639638228e-09
3.17444284414e-09
1.03700206233e-09
2.22415640618e-10
3.52798769125e-11
4.51089677695e-12
4.82272691837e-13
4.38664770626e-14
3.43520511529e-15
2.34203280916e-16
1.40870904319e-17
7.59873355997e-19
3.76289725187e-20
1.61251021105e-21
5.41296414149e-23
1.14294424331e-07
1.86216843727e-08
0.00144243394324
1.0340017628e-07
8.11689811201e-08
1.83004003625e-08
5.70521883242e-09
1.90326196427e-09
4.39360313979e-10
7.50881975989e-11
1.03385664068e-11
1.18875284348e-12
1.15674040594e-13
9.61955436987e-15
6.90575227756e-16
4.33231365535e-17
2.40919681109e-18
1.21059835807e-19
5.12325870812e-21
1.62863472506e-22
9.82440240488e-08
2.55420160967e-08
0.00141523398393
1.42305263468e-08
4.2596161023e-08
1.9568653476e-08
6.16381215241e-09
2.61310204845e-09
7.50163539503e-10
1.44576323018e-10
2.1793640885e-11
2.70556127004e-12
2.82128188947e-13
2.49635298422e-14
1.89161990309e-15
1.24102997071e-16
7.13432191729e-18
3.64753879711e-19
1.52989915596e-20
4.62184792922e-22
2.98755662802e-08
1.25784873534e-08
5.10098215083e-06
1.79464566168e-11
9.70613159944e-09
1.38555320177e-08
5.45586232575e-09
2.91379515152e-09
1.04601309771e-09
2.42903702733e-10
4.13076867711e-11
5.62576293122e-12
6.34155500397e-13
6.00378519568e-14
4.82212927449e-15
3.32003798864e-16
1.97949635798e-17
1.03323372631e-18
4.31486578615e-20
1.24674043258e-21
4.94359152991e-09
7.15127960799e-09
5.821754416e-06
1.53871802115e-11
2.45058781999e-10
3.06217012097e-09
3.33545639297e-09
2.69719957148e-09
1.28068522991e-09
3.62312610419e-10
7.08234983748e-11
1.07092485012e-11
1.31544492461e-12
1.34033991043e-13
1.1463669363e-14
8.31553543317e-16
5.16142554574e-17
2.76158081491e-18
1.15442212397e-19
3.21707674532e-21
1.40021872041e-09
3.54161059305e-09
9.02483673303e-07
0.00083256209745
1.19604374016e-09
1.90488901111e-08
6.37229668739e-09
3.01421995046e-09
1.5635436614e-09
5.14083820049e-10
1.13397326936e-10
1.89617358201e-11
2.54094221611e-12
2.79376070429e-13
2.55242121443e-14
1.95711819328e-15
1.2691993846e-16
6.99021458692e-18
2.9418984246e-19
7.98218333115e-21
7.13530448557e-10
2.34297184693e-09
1.26612325022e-07
0.00161251793322
3.73454767177e-10
1.15280906453e-08
7.28487172592e-09
2.78892344419e-09
1.75123112944e-09
6.72913129141e-10
1.69633287528e-10
3.14770587959e-11
4.60505961401e-12
5.47098060659e-13
5.35007016295e-14
4.34747084993e-15
2.95510616933e-16
1.68218791787e-17
7.16859856387e-19
1.9126077757e-20
1.10296874709e-10
1.57322420723e-09
3.97069779896e-08
2.61846296542e-05
3.14665798211e-11
3.18916890826e-09
4.98847103306e-09
2.08049177773e-09
1.70550775393e-09
8.17475677417e-10
2.36653728765e-10
4.90520115162e-11
7.86533690752e-12
1.01162564008e-12
1.06081046678e-13
9.15535081432e-15
6.54144472931e-16
3.86342000159e-17
1.6763039447e-18
4.44161628955e-20
3.27198345168e-11
1.12293937689e-09
1.95610254403e-08
3.44025444417e-06
9.63352880063e-12
1.6078306388e-10
1.22639864559e-09
1.15556248973e-09
1.44161375354e-09
8.85275752583e-10
3.06890845186e-10
7.19245654053e-11
1.27095581423e-11
1.77427430515e-12
1.99863725686e-13
1.83557261167e-14
1.38210617794e-15
8.4988488931e-17
3.77411436616e-18
1.00268954576e-19
1.64540125515e-11
9.30219133663e-10
1.35084702039e-08
2.68735307461e-06
6.43428831864e-11
2.11371596203e-12
1.49016465738e-10
4.07222013815e-10
9.18057294782e-10
8.70150424618e-10
3.71949813173e-10
1.00201656676e-10
1.9540771154e-11
2.96643307518e-12
3.59416052682e-13
3.51804253995e-14
2.79765336096e-15
1.79679605068e-16
8.20540680464e-18
2.20574374604e-19
2.1673672073e-11
8.32384037096e-10
1.0258698994e-08
3.01765049922e-06
0.00100056053125
0
2.73160743131e-09
2.23238268606e-09
9.83615105042e-10
9.19950520332e-10
4.45466008647e-10
1.34555221796e-10
2.88863687284e-11
4.75844913213e-12
6.19886339943e-13
6.47135527732e-14
5.44428564614e-15
3.66192441775e-16
1.72712770279e-17
4.73731767246e-19
3.0195587976e-11
7.24294598222e-10
7.33262711617e-09
1.01629710166e-06
0.00119644263103
7.92743675211e-12
8.08290439762e-10
2.43140973461e-09
6.80391243126e-10
8.54241473318e-10
5.07959417158e-10
1.73600793896e-10
4.11402674889e-11
7.34897094391e-12
1.02891358149e-12
1.14617402748e-13
1.02153249086e-14
7.21294300707e-16
3.52709086524e-17
9.94735663931e-19
4.3240508974e-11
6.04041094595e-10
4.99718504075e-09
3.27889392342e-07
2.2803217588e-05
2.29069126456e-11
9.4575017127e-11
6.39667489824e-10
3.38213537822e-10
6.62894228685e-10
5.26128900817e-10
2.13541343054e-10
5.6204071757e-11
1.09320482982e-11
1.64654525806e-12
1.95896138115e-13
1.85222872129e-14
1.37592173064e-15
7.00009058272e-17
2.04401589454e-18
5.72128578553e-11
5.15433751272e-10
3.66063823468e-09
1.47664235223e-07
4.20366351794e-06
2.61322413579e-10
1.87856927611e-12
6.97902579879e-11
1.14842545117e-10
4.1486426956e-10
4.86178292597e-10
2.46782111396e-10
7.34900978002e-11
1.56639084356e-11
2.54396779037e-12
3.23655727795e-13
3.25117874568e-14
2.5459946407e-15
1.35189742756e-16
4.11238506778e-18
7.23468743315e-11
4.60466336137e-10
2.93593698929e-09
8.14210326335e-08
2.04209727474e-06
0.00049447196677
5.13577795238e-11
1.58800591687e-09
6.0865626168e-10
3.31008393719e-10
4.71541012262e-10
2.78977645127e-10
9.37297958198e-11
2.1728943872e-11
3.80566453395e-12
5.1801211254e-13
5.53413208028e-14
4.5764730546e-15
2.54328820277e-16
8.10323304195e-18
8.83108296775e-11
4.32440798367e-10
2.55905821566e-09
5.08538085619e-08
1.60417990711e-06
0.0011655388889
1.0945655002e-11
1.41752755102e-09
1.39969138382e-09
2.73744725571e-10
4.41963686566e-10
3.0282443888e-10
1.15750925197e-10
2.92594434734e-11
5.52522884935e-12
8.0473730294e-13
9.15039089641e-14
8.00191853237e-15
4.6651368128e-16
1.56406204722e-17
1.05238740221e-10
4.24123466454e-10
2.37579989396e-09
3.53142922226e-08
1.10415285257e-06
0.000971551281245
7.19518770061e-11
3.74056459553e-10
8.40255723114e-10
1.7134365152e-10
3.68368631633e-10
3.11001818456e-10
1.35714866842e-10
3.81604190392e-11
7.79031190947e-12
1.21514974285e-12
1.47173612246e-13
1.3626236812e-14
8.35069439223e-16
2.95766496089e-17
1.22158347928e-10
4.25023805001e-10
2.25473035656e-09
2.65174323254e-08
7.80065167285e-07
0.000163229981397
1.03907044932e-09
3.10313482231e-11
1.88550388281e-10
7.62996266876e-11
2.54504908181e-10
2.8858082025e-10
1.5137266158e-10
4.80313238179e-11
1.06750747535e-11
1.78554222709e-12
2.30566317766e-13
2.26245988922e-14
1.45992163981e-15
5.48050924158e-17
1.38021791075e-10
4.31899924218e-10
2.1794043349e-09
2.15669511012e-08
6.08777363729e-07
1.12476051498e-05
8.06741914291e-08
1.64783417015e-15
1.1110259101e-11
4.70200259584e-11
1.4421221145e-10
2.42372439216e-10
1.62868338102e-10
5.82312495012e-11
1.42049569325e-11
2.5557010904e-12
3.52253226319e-13
3.66667047569e-14
2.49470287733e-15
9.95281852e-17
1.52911147776e-10
4.47495584853e-10
2.15577687017e-09
1.85134587768e-08
4.53909439117e-07
2.98437702889e-06
0.000524508005543
7.58152197884e-11
1.03700914929e-09
3.07269301575e-10
1.02856320711e-10
2.17682606733e-10
1.7101767192e-10
6.87818988153e-11
1.84060258047e-11
3.56803114391e-12
5.25338425905e-13
5.80504592035e-14
4.16909166099e-15
1.77154337052e-16
1.6782633238e-10
4.72746099704e-10
2.16455986224e-09
1.62335982685e-08
3.22619070009e-07
1.30487165633e-06
0.00105938169953
5.89800313588e-11
1.24293440577e-09
8.67997016136e-10
8.92581594182e-11
1.98775102803e-10
1.74438592477e-10
8.01500980542e-11
2.32710340839e-11
4.8632494518e-12
7.65241685512e-13
8.9819928433e-14
6.8157561909e-15
3.09014895915e-16
1.84951001232e-10
5.11229461626e-10
2.2148764483e-09
1.46742520493e-08
2.36283991273e-07
8.33900981166e-07
0.00117302067439
6.00340594147e-10
5.57810534922e-10
5.86366151728e-10
6.4032045034e-11
1.61061276414e-10
1.6990913397e-10
9.14922653037e-11
2.86857831549e-11
6.47375757406e-12
1.08918374758e-12
1.3585848933e-13
1.09011525658e-14
5.28104952503e-16
2.07349060293e-10
5.68540545794e-10
2.32687171289e-09
1.38766643693e-08
1.86522162407e-07
6.57584217731e-07
0.000752649793794
3.72534872095e-08
1.05975735566e-10
2.37802336442e-10
6.8815186934e-11
1.19929655568e-10
1.54028591742e-10
9.7475725839e-11
3.43808153037e-11
8.41564654742e-12
1.51553056547e-12
2.00967329907e-13
1.70604565441e-14
8.84110547773e-16
2.38499596702e-10
6.49482746601e-10
2.5026099105e-09
1.36647415098e-08
1.57267708048e-07
5.72034261087e-07
0.000297634702189
0.000173408560638
6.36838757813e-10
9.04132490838e-10
1.01316972316e-10
8.86556967945e-11
1.3776964022e-10
9.95824440625e-11
4.01623130188e-11
1.0719668164e-11
2.06325422619e-12
2.90908719638e-13
2.6135037987e-14
1.449983113e-15
2.82192605762e-10
7.56917883774e-10
2.73128529024e-09
1.37999333164e-08
1.36647551233e-07
5.1923698389e-07
2.11302404357e-05
0.000397531950583
1.3618390266e-09
1.90229490315e-09
2.64389005155e-10
9.20019019339e-11
1.30944903847e-10
1.03419847865e-10
4.58378348383e-11
1.33579169217e-11
2.74984488584e-12
4.12284143722e-13
3.92038400438e-14
2.3300876377e-15
3.44819795822e-10
9.00703312873e-10
3.03837675628e-09
1.43293741577e-08
1.22655271827e-07
4.67084387221e-07
3.93342607605e-06
0.000811100652933
1.59500678489e-09
3.31757563699e-09
6.73765573511e-10
9.37198257626e-11
1.16943280512e-10
1.05676873315e-10
5.10606183006e-11
1.62677011729e-11
3.58896308239e-12
5.72313970633e-13
5.76071715704e-14
3.67002754283e-15
4.36297643739e-10
1.09508813926e-09
3.45922177781e-09
1.53220698212e-08
1.13942859247e-07
4.13134872401e-07
1.91096797619e-06
0.00116124907793
8.75100551212e-09
3.77285111252e-09
8.05506452327e-10
6.80687584056e-11
1.02871670725e-10
1.02521512479e-10
5.56177228254e-11
1.93623518865e-11
4.59002402902e-12
7.78791070816e-13
8.29811367021e-14
5.66915075012e-15
5.70098145298e-10
1.35824881879e-09
4.03277541286e-09
1.68672081786e-08
1.09664989884e-07
3.67736927044e-07
1.18560603082e-06
0.0012073929865
5.73370946609e-07
3.36237105219e-09
8.66224835568e-10
8.14627146125e-11
8.59368506207e-11
9.39563000192e-11
5.98018848609e-11
2.25245802236e-11
5.75678624681e-12
1.03998109718e-12
1.17297744071e-13
8.59639261102e-15
7.62651240258e-10
1.71282498968e-09
4.80675255321e-09
1.90640154116e-08
1.08753155776e-07
3.30355054491e-07
8.24321964729e-07
0.00101348309594
9.87667356259e-05
9.79349810914e-09
2.43961056028e-09
1.16915198681e-10
8.31150786419e-11
8.94578675272e-11
6.35821922175e-11
2.56543888072e-11
7.08615895502e-12
1.36397613994e-12
1.62850383398e-13
1.28066110019e-14
1.03439892863e-09
2.19097460223e-09
5.84961420716e-09
2.20219290992e-08
1.10030559978e-07
2.97927632237e-07
5.93500039416e-07
0.000699506542115
0.0002136305184
1.63481900882e-08
4.62536731814e-09
2.68981758784e-10
9.04968323003e-11
8.37885890536e-11
6.57725581251e-11
2.86179230884e-11
8.5606348997e-12
1.75732980546e-12
2.22138531578e-13
1.87527420647e-14
1.41580648328e-09
2.84512763495e-09
7.27393454376e-09
2.59225531182e-08
1.12898007729e-07
2.7070867376e-07
4.48446949257e-07
0.000394939792307
0.000397659903083
2.67427530186e-08
8.15728827527e-09
5.63054075162e-10
8.40065759978e-11
8.22108113553e-11
6.50833140624e-11
3.13265463691e-11
1.01607096493e-11
2.22421375606e-12
2.97748873732e-13
2.69965087012e-14
1.9578396354e-09
3.7620061981e-09
9.25558494358e-09
3.09999483919e-08
1.1703348326e-07
2.47563067311e-07
3.59692029314e-07
0.000181875574534
0.000645460144958
8.48986276624e-08
1.39998467879e-08
1.07279555022e-09
8.5544810964e-11
7.48829941515e-11
6.38955399051e-11
3.34841200126e-11
1.19188746035e-11
2.76700791969e-12
3.92368002395e-13
3.82279120452e-14
2.74655404249e-09
5.08097416685e-09
1.20451660664e-08
3.74786807249e-08
1.22038893724e-07
2.27396213404e-07
3.05573451125e-07
6.35283927702e-05
0.000876400745091
1.23500196498e-06
2.41471814484e-08
1.58943145002e-09
9.89580136518e-11
6.67286399766e-11
6.08301579494e-11
3.4864757747e-11
1.37224882899e-11
3.38473771714e-12
5.08744863013e-13
5.32887290751e-14
3.92329597473e-09
7.0165190033e-09
1.59623119063e-08
4.54832314134e-08
1.27285632089e-07
2.0899457791e-07
2.72155607686e-07
1.94493896918e-05
0.00102125302925
2.84989910587e-05
6.15370596332e-08
3.72818415161e-09
1.76305415495e-10
6.90620815976e-11
5.68699089083e-11
3.56226726299e-11
1.55107858129e-11
4.07251128711e-12
6.49429344563e-13
7.31764262257e-14
5.71036604517e-09
9.87522226887e-09
2.13505187987e-08
5.49137997236e-08
1.31823387712e-07
1.90904748442e-07
2.48151471958e-07
9.31105786187e-06
0.00108647479575
7.35122134203e-05
1.19862014759e-07
7.9577830173e-09
2.74971351599e-10
7.70587805818e-11
5.52821117164e-11
3.59945934515e-11
1.72357002982e-11
4.82052139067e-12
8.16328420941e-13
9.90145225913e-14
8.43185740542e-09
1.40427465036e-08
2.84807288529e-08
6.53294283034e-08
1.3450928007e-07
1.72340012727e-07
2.29294541302e-07
6.2664883016e-06
0.00109549989994
0.000125758761189
2.01956505105e-07
1.46016109482e-08
5.20329564005e-10
8.7676748766e-11
5.38168124011e-11
3.59533148967e-11
1.88510259446e-11
5.61407618365e-12
1.01040587813e-12
1.32012182285e-13
1.25002781887e-08
1.99059793566e-08
3.73862977785e-08
7.58439530275e-08
1.34254821386e-07
1.53445583237e-07
2.13241370653e-07
5.03047534006e-06
0.0010702258384
0.000192112369078
3.00538467016e-07
2.79579982593e-08
9.96859364692e-10
1.04804530889e-10
5.21483583065e-11
3.55555439488e-11
2.03147767989e-11
6.43542731794e-12
1.23173908319e-12
1.73443202327e-13
1.83182112391e-08
2.76680316119e-08
4.76282288006e-08
8.50834273369e-08
1.30179453958e-07
1.34403061414e-07
2.05919879686e-07
4.53006870918e-06
0.00103018403131
0.000264087127224
7.46548191857e-07
4.40336176433e-08
2.02201962356e-09
1.45121784687e-10
5.5275284982e-11
3.51465682317e-11
2.16197217727e-11
7.26767242261e-12
1.479712287e-12
2.24623940751e-13
2.60388195038e-08
3.70461155159e-08
5.80670604257e-08
9.13427604188e-08
1.21861072696e-07
1.15897965034e-07
2.08718744169e-07
4.49500939722e-06
0.000990930390027
0.000329054355138
3.13063778463e-06
6.8351328487e-08
4.25282267463e-09
2.36397636308e-10
6.47912885902e-11
3.55663751977e-11
2.28408119583e-11
8.10066010565e-12
1.75318921321e-12
2.86840314319e-13
3.51851930675e-08
4.69389890605e-08
6.68289437771e-08
9.29981521857e-08
1.09556699126e-07
9.89804296274e-08
2.24515212039e-07
4.91860158364e-06
0.000959064251987
0.000382183833931
1.04202548456e-05
1.08535113162e-07
8.86320983578e-09
4.56508218649e-10
8.07023226566e-11
3.83604760884e-11
2.41970559613e-11
8.94071839027e-12
2.050943334e-12
3.61229872981e-13
4.42942160061e-08
5.53271245808e-08
7.17062436019e-08
8.90959150072e-08
9.42819247043e-08
8.50405524288e-08
2.58228149674e-07
6.09574329356e-06
0.000937297129794
0.000421337973988
1.99246981556e-05
1.60968524028e-07
1.63853036288e-08
7.99910201788e-10
1.10324239889e-10
4.39722734119e-11
2.59913564951e-11
9.81657043784e-12
2.37262760078e-12
4.48697940884e-13
5.09960422829e-08
5.97751219033e-08
7.10204069254e-08
7.98793020718e-08
7.77350654381e-08
7.59642763325e-08
3.18946976797e-07
9.47090548237e-06
0.000927178433253
0.000437588465681
2.93696152042e-05
2.37259999466e-07
2.69033163208e-08
1.58321790754e-09
1.59155719421e-10
5.29357763069e-11
2.85382952176e-11
1.07799569669e-11
2.71999850299e-12
5.49928002142e-13
5.29321740355e-08
5.85885073764e-08
6.45588088878e-08
6.69192231009e-08
6.21805999469e-08
7.50172880889e-08
4.25977373414e-07
2.24556035482e-05
0.000925948497073
0.000439430987396
3.79817087112e-05
3.82281661194e-07
4.13539297084e-08
2.932981119e-09
2.46785191854e-10
6.59514417994e-11
3.21089102368e-11
1.19008845032e-11
3.09781167011e-12
6.65516634142e-13
4.91864623545e-08
5.19038280904e-08
5.38393126684e-08
5.27024289494e-08
5.01662007479e-08
8.70611309538e-08
6.09629749661e-07
6.98981157225e-05
0.000918324536844
0.000430132373413
4.55475602244e-05
6.81032672615e-07
6.15534599199e-08
5.16029415317e-09
4.04944213985e-10
8.4526882844e-11
3.69058702036e-11
1.32614610576e-11
3.51423059544e-12
7.96224840559e-13
4.09847817371e-08
4.17117830714e-08
4.15094169262e-08
4.00312616376e-08
4.47155336124e-08
1.2073956436e-07
9.16572776402e-07
0.000150365196781
0.000903011808755
0.000410856172883
5.16302925016e-05
1.22973667941e-06
9.05113395276e-08
8.8328062622e-09
6.10192697516e-10
1.0781805199e-10
4.29139122312e-11
1.49405070708e-11
3.98075823112e-12
9.43498215878e-13
3.09289497082e-08
3.08240890182e-08
3.04145496052e-08
3.17011641112e-08
4.99403552165e-08
1.92319403375e-07
1.43235450679e-06
0.000259570218927
0.000877001660978
0.00038287167233
5.56471792094e-05
2.01318035843e-06
1.31229633821e-07
1.46100793874e-08
1.09564707041e-09
1.50623480034e-10
5.04169483429e-11
1.70429990455e-11
4.51396582342e-12
1.11037599227e-12
2.1710560731e-08
2.18742500289e-08
2.3153264716e-08
3.08632692516e-08
7.31850847428e-08
3.34655684612e-07
2.4502679475e-06
0.000396885903471
0.000835790129746
0.000348181980795
5.7304733168e-05
2.93190403557e-06
1.83405924294e-07
2.32163930874e-08
1.92741894572e-09
2.26506398398e-10
6.12242335374e-11
1.97087390458e-11
5.13816701953e-12
1.30314582893e-12
1.55446165692e-08
1.7158858508e-08
2.25319801679e-08
4.26767154277e-08
1.30914137059e-07
6.1636096198e-07
8.22428461715e-06
0.000546539888087
0.000776029509221
0.000308756747985
5.65823253544e-05
3.84400533043e-06
2.46311596756e-07
3.55493896916e-08
3.31262105569e-09
3.46036137209e-10
7.78209193539e-11
2.31371700747e-11
5.89109131351e-12
1.53392136032e-12
1.46958045915e-08
1.96669158472e-08
3.37318471253e-08
7.99024880035e-08
2.65981334717e-07
1.20570305847e-06
9.73558387664e-05
0.000673711031181
0.000696643471661
0.000266967374677
5.37536208017e-05
4.60641769038e-06
3.17522932953e-07
5.26557321276e-08
5.51370306127e-09
5.49039322766e-10
1.00725192964e-10
2.75596324754e-11
6.83029307068e-12
1.82454051146e-12
2.36870424941e-08
3.64949331495e-08
7.07784599083e-08
1.77775389786e-07
5.82780340488e-07
3.08167796597e-06
0.000270210374016
0.00074514333231
0.00060077846759
0.000225008572564
4.92730593253e-05
5.1280857532e-06
3.96321485399e-07
7.40125545639e-08
8.73048580963e-09
8.70618913803e-10
1.32845582061e-10
3.32379446749e-11
8.0414550852e-12
2.21256873826e-12
5.66950265275e-08
9.01091330055e-08
1.77006223869e-07
4.3640055508e-07
1.40696222808e-06
6.76146700016e-05
0.000477688375703
0.000744263577261
0.000496273620801
0.000184832706903
4.36655479168e-05
5.37704918663e-06
4.81008871995e-07
9.80697303551e-08
1.35845087895e-08
1.38301394226e-09
1.79653738023e-10
4.05638437128e-11
9.65500441089e-12
2.76002441664e-12
1.63877144437e-07
2.56828638691e-07
4.90768508786e-07
1.19845165074e-06
1.75593873536e-05
0.000263999272168
0.000634569804541
0.000672750259215
0.000391753415401
0.000147609720039
3.74182734831e-05
5.36467448189e-06
5.66124918526e-07
1.22713538674e-07
2.02973380554e-08
2.08724064463e-09
2.48992582671e-10
5.00205963908e-11
1.18606629751e-11
3.58628106822e-12
5.21747785543e-07
8.07935589574e-07
1.68302355216e-06
2.21159553574e-05
0.000185308498244
0.000484920755838
0.00067210639759
0.000556208012927
0.000300674832665
0.000117320616918
3.22790295304e-05
5.4135106357e-06
6.72909268866e-07
1.50805085041e-07
2.95141774346e-08
3.25844295758e-09
3.45028478464e-10
6.1233387004e-11
1.48087063908e-11
4.89593123564e-12
9.23931987014e-27
1.77032530521e-26
1.19115573538e-26
2.01097817333e-26
3.25965895926e-26
3.87237591279e-26
1.18171228155e-25
1.02506565991e-25
4.05764310557e-25
2.60616169018e-25
1.28073669878e-24
6.57109130034e-25
3.77192746824e-24
1.63621624126e-24
1.04990279961e-23
4.013386554e-24
2.79047394718e-23
9.69814851444e-24
7.14628615045e-23
2.31296423314e-23
1.77617443459e-22
5.45544822731e-23
4.30613565752e-22
1.27424890279e-22
1.02177486456e-21
2.94930663066e-22
2.37849787648e-21
6.7660643483e-22
5.44076510916e-21
1.53862905485e-21
1.22447992492e-20
3.4681704264e-21
2.71354826002e-20
7.74782329742e-21
5.92422532089e-20
1.71498471137e-20
1.27438336325e-19
3.75981252413e-20
2.70027778502e-19
8.16126153614e-20
5.63319271933e-19
1.75154267824e-19
1.1563587184e-18
3.70998903011e-19
2.33415426813e-18
7.74565292736e-19
4.63015289778e-18
1.59227666529e-18
9.02079058088e-18
3.22019578206e-18
1.72488678722e-17
6.40423517175e-18
3.23544747608e-17
1.25065763127e-17
5.94998247825e-17
2.39549515351e-17
1.07217333237e-16
4.49603713506e-17
1.89240090404e-16
8.2630508007e-17
3.27116450163e-16
1.48646857269e-16
5.53821730988e-16
2.61714031503e-16
9.18615346805e-16
4.51035547333e-16
1.49357251938e-15
7.61166023052e-16
2.38228932083e-15
1.25868579832e-15
3.73067520954e-15
2.04101288066e-15
5.73904039745e-15
3.24732130828e-15
8.67565985418e-15
5.07162756292e-15
1.28939526535e-14
7.77884233751e-15
1.88531965762e-14
1.17241142278e-14
2.71367670498e-14
1.73729728259e-14
3.84606030079e-14
2.53173060631e-14
5.36721760055e-14
3.6283476711e-14
7.37447213551e-14
5.11312885526e-14
9.97590010287e-14
7.08379636221e-14
1.32852776675e-13
9.64554778896e-14
1.7412840242e-13
1.29030247489e-13
2.24548545855e-13
1.6950326525e-13
2.84863309555e-13
2.18625807747e-13
3.55640077972e-13
2.76969946033e-13
4.3742034821e-13
3.45064398717e-13
5.31155458864e-13
4.23808173417e-13
6.38985673134e-13
5.15217290829e-13
7.65766797483e-13
6.23947924726e-13
9.21272518702e-13
7.59411824345e-13
1.12284480179e-12
9.37906927138e-13
1.40169985535e-12
1.18936911768e-12
1.80761495928e-12
1.559710289e-12
2.43482981819e-12
2.12800040662e-12
3.69287800346e-12
3.43486994168e-12
)
;

boundaryField
{
    inletfuel
    {
        type            calculated;
        value           uniform 0;
    }
    inletair
    {
        type            calculated;