/*--------------------------------*- C++ -*----------------------------------*\
  =========                 |
  \\      /  F ield         | OpenFOAM: The Open Source CFD Toolbox
   \\    /   O peration     | Website:  https://openfoam.org
    \\  /    A nd           | Version:  dev
     \\/     M anipulation  |
\*---------------------------------------------------------------------------*/
FoamFile
{
    version     2.0;
    format      ascii;
    class       volScalarField;
    location    "0.3";
    object      edc::YStar_CH3;
}
// * * * * * * * * * * * * * * * * * * * * * * * * * * * * * * * * * * * * * //

dimensions      [0 0 0 0 0 0 0];

internalField   nonuniform List<scalar> 
1629
(
1.10199957824e-19
1.04284321617e-19
8.42799440234e-20
1.51359821902e-17
2.05369540437e-17
3.50695379673e-17
1.13027156118e-15
2.34706630946e-15
8.39322058841e-15
6.33254541788e-14
1.96208110579e-13
1.33379337583e-12
2.55072012121e-12
8.35267672508e-12
4.64935389865e-11
1.00206156913e-10
3.57508488526e-10
1.80047738584e-09
3.07472667578e-09
1.1240368812e-08
5.10047231493e-08
5.69346049415e-08
2.02323518356e-07
8.64927972269e-07
1.79260124061e-07
4.54766073077e-07
1.27630417817e-06
3.44244067824e-07
6.57145508767e-07
1.33779807784e-06
5.02973614251e-07
7.69347518748e-07
1.23073708772e-06
6.26335925583e-07
8.27496704182e-07
1.16488933582e-06
7.20655687056e-07
8.87415193766e-07
1.23115277435e-06
7.87461499763e-07
9.35841380288e-07
1.27857078072e-06
8.34051308731e-07
9.78248619634e-07
1.33959792633e-06
8.58192931687e-07
9.97892814202e-07
1.3512381582e-06
8.57799136534e-07
9.88539398653e-07
1.31530675254e-06
8.34365343336e-07
9.51862257228e-07
1.2415985189e-06
7.95647307451e-07
9.00250194609e-07
1.15434127392e-06
7.55341476917e-07
8.52412218829e-07
1.08668305683e-06
7.29348937559e-07
8.26714076198e-07
1.06516257398e-06
7.2489564533e-07
8.27007973478e-07
1.07802239034e-06
7.35631896405e-07
8.40046590856e-07
1.09339338445e-06
7.52156301541e-07
8.54535766239e-07
1.09889553869e-06
7.70702318978e-07
8.68929514131e-07
1.10102382057e-06
7.94939437716e-07
8.90085392601e-07
1.1143365509e-06
8.33375555627e-07
9.28231846648e-07
1.15262077844e-06
8.92931786709e-07
9.90402487831e-07
1.2203750433e-06
9.77137684773e-07
1.07825323984e-06
1.31489970311e-06
1.08447122081e-06
1.18811390171e-06
1.42828047041e-06
1.20877138868e-06
1.31257223562e-06
1.55150938956e-06
1.34184347893e-06
1.44416511351e-06
1.67863659421e-06
1.47637599987e-06
1.57710965054e-06
1.80736975248e-06
1.61235821346e-06
1.71311051983e-06
1.94287402671e-06
1.75647915468e-06
1.85858956034e-06
2.09347724349e-06
1.92561881644e-06
2.03313117323e-06
2.2810937199e-06
2.15244854365e-06
2.26967956653e-06
2.54060770787e-06
2.48124937835e-06
2.61390908902e-06
2.92010793278e-06
2.96500758579e-06
3.11782565604e-06
3.47055669066e-06
3.65549734969e-06
3.83324740312e-06
4.24289198271e-06
4.60759813949e-06
4.81595116509e-06
5.29107445235e-06
5.9017566364e-06
6.14592900511e-06
6.70206445624e-06
7.68366224476e-06
7.97555976678e-06
8.6399544389e-06
1.0211267196e-05
1.0569624866e-05
1.13854150276e-05
1.38959548912e-05
1.43481304555e-05
1.53782625234e-05
1.93450780916e-05
1.99288738128e-05
2.1259112946e-05
2.73784120443e-05
2.81406951171e-05
2.98757221664e-05
3.89576635309e-05
3.99468966779e-05
4.21922544197e-05
5.49572673397e-05
5.62050798378e-05
5.90233698693e-05
7.57068396475e-05
7.72024526495e-05
8.05601190867e-05
0.000100395709882
0.000102067780445
0.000105797353829
0.000126677495303
0.000128400335232
0.000132220092518
0.000151003664621
0.000152639380974
0.000156247935882
0.000169977348326
0.00017143477118
0.000174640040055
0.000182019046401
0.000183282707059
0.000186057740622
0.000187766915897
0.000188865770283
0.000191277939873
0.000188744974572
0.000189704970975
0.000191806974476
0.000185750276119
0.000186563848315
0.000188340342086
0.000178224412946
0.000178856155235
0.000180224409443
0.000164565636625
0.000164964168373
0.000165811629395
0.000143361758404
0.00014348777007
0.000143729190713
0.000115177165961
0.000115032421453
0.000114675434094
8.23084165318e-05
8.18992122861e-05
8.09622560108e-05
7.26454068381e-12
1.85414796894e-10
6.11975738435e-09
1.62817567388e-07
2.89561546038e-06
2.81655834335e-06
2.22067810571e-06
1.67458489181e-06
1.59287664297e-06
1.89129818937e-06
1.94686003714e-06
2.06670081526e-06
2.03224675577e-06
1.91952074511e-06
1.75244332458e-06
1.58878994493e-06
1.48925282924e-06
1.48402291106e-06
1.51825161659e-06
1.52501843109e-06
1.50321080191e-06
1.47866834434e-06
1.47751475408e-06
1.5158040157e-06
1.59029223705e-06
1.68929834193e-06
1.80193364485e-06
1.91799286518e-06
2.03499104795e-06
2.15724679157e-06
2.29349228617e-06
2.45406335155e-06
2.66309193758e-06
2.95968239152e-06
3.39225406866e-06
4.0126775578e-06
4.86648820915e-06
6.00901644724e-06
7.53901857053e-06
9.63838468373e-06
1.26110684274e-05
1.69257515611e-05
2.32555333203e-05
3.24723020687e-05
4.5532104863e-05
6.31798043671e-05
8.54612835504e-05
0.000111183998643
0.000137682868752
0.000161368443395
0.00017916883939
0.00018997253071
0.00019467848449
0.00019476309817
0.000190822232945
0.000182112307852
0.000166945542435
0.000143991953175
0.000114088793779
7.95553445081e-05
4.76100461505e-17
2.19348310282e-16
4.69902958532e-16
5.49310259578e-16
3.66181759124e-16
1.6145266237e-16
5.17524175555e-17
1.27510785329e-17
2.52428729681e-18
4.11455279982e-19
5.58399574445e-20
6.35551785162e-21
6.10092181876e-22
4.96658455515e-23
3.45107381048e-24
2.06472213287e-25
1.07757520656e-26
4.98484327439e-28
2.08286592053e-29
4.72503710335e-31
1.47925519957e-15
4.58231401105e-15
1.02823003129e-14
1.20362627697e-14
7.09351852014e-15
2.67280884439e-15
7.29049691137e-16
1.54160121474e-16
2.66649041711e-17
3.85194256524e-18
4.69068293806e-19
4.84771478577e-20
4.27640675545e-21
3.23919332045e-22
2.12231787898e-23
1.21517254464e-24
6.17864526252e-26
2.84502680914e-27
1.18407868592e-28
2.70564597332e-30
7.66405319507e-14
6.87376208376e-14
1.40044115315e-13
1.56025216468e-13
7.99644806845e-14
2.59333214638e-14
6.14235567639e-15
1.14918393758e-15
1.79157235492e-16
2.35697479246e-17
2.63843439573e-18
2.52926097714e-19
2.0882889338e-20
1.49432063244e-21
9.34297023107e-23
5.1648845854e-24
2.57191501909e-25
1.18589056367e-26
4.97243897729e-28
1.07795994047e-29
4.34147983518e-12
1.50145906454e-12
1.87375213162e-12
1.6531151356e-12
7.17801311216e-13
2.05410911199e-13
4.39181198081e-14
7.6058937045e-15
1.10926606081e-15
1.37633420614e-16
1.46370358635e-17
1.34193886332e-18
1.06625906342e-19
7.38733880305e-21
4.50065624681e-22
2.44250123647e-23
1.20558461806e-24
5.59345166779e-26
2.41255890176e-27
6.24607100606e-29
2.76404960467e-10
8.61450378197e-11
3.52589599621e-11
1.95387354991e-11
6.55997776223e-12
1.59620910796e-12
3.05027676387e-13
4.88076925999e-14
6.65515447569e-15
7.81461508909e-16
7.95077854303e-17
7.0383450814e-18
5.44207294372e-19
3.69380740978e-20
2.21827218929e-21
1.19412983153e-22
5.88928655926e-24
2.7603264251e-25
1.22823692232e-26
3.98174055484e-28
1.45964759283e-08
1.00880842453e-08
9.87078721119e-10
2.54101160386e-10
5.88363038094e-11
1.1620956688e-11
1.96762367661e-12
2.87739226028e-13
3.6664901876e-14
4.09401110983e-15
4.0154850399e-16
3.46333187462e-17
2.63068697857e-18
1.76567832411e-19
1.054264429e-20
5.67063808936e-22
2.80845557634e-23
1.33035319394e-24
6.02568243523e-26
2.20589519801e-27
4.81085805872e-07
3.00341578822e-07
3.19363430976e-08
4.01371344591e-09
5.17348866248e-10
7.40124229252e-11
1.06506357741e-11
1.43313660726e-12
1.73826258282e-13
1.88254185006e-14
1.81279326953e-15
1.54796224012e-16
1.17107634594e-17
7.86294690198e-19
4.7122187712e-20
2.55063372241e-21
1.27364794455e-22
6.08806038004e-24
2.76274540991e-25
1.06290287968e-26
8.77323106161e-06
4.61538045834e-14
3.28472703977e-07
1.12245025734e-08
1.48284453048e-09
2.58265109213e-10
3.81935977722e-11
5.21487287409e-12
6.47212396071e-13
7.15999346868e-14
7.02704027477e-15
6.10673522478e-16
4.69757648885e-17
3.20519398833e-18
1.95083925036e-19
1.07149794533e-20
5.41834666804e-22
2.61059311074e-23
1.17398055086e-24
4.51460902912e-26
6.57124455746e-06
7.67174793917e-05
4.10813505645e-07
1.51291983832e-08
2.11747584564e-09
4.28251557591e-10
8.22105977335e-11
1.31346215592e-11
1.82240655951e-12
2.19257932046e-13
2.29372854377e-14
2.09548189048e-15
1.67850395408e-16
1.18452282233e-17
7.41774582716e-19
4.1716822623e-20
2.14710914023e-21
1.04308583429e-22
4.62226678308e-24
1.72117060297e-25
3.83106475619e-06
2.38189583106e-05
2.79450467409e-07
9.92907438252e-09
2.19045921687e-09
5.47628842845e-10
1.34614348357e-10
2.60519087843e-11
4.17043517561e-12
5.61991787273e-13
6.4328436643e-14
6.31588909523e-15
5.36395741252e-16
3.97199693528e-17
2.58790546564e-18
1.50238867542e-19
7.90971054922e-21
3.88045882295e-22
1.69158720829e-23
5.99952863718e-25
2.25222644669e-06
6.51380312322e-06
5.77829910451e-07
1.44952440598e-08
2.96356365851e-09
7.56095045408e-10
2.11389458572e-10
4.71648673976e-11
8.54870016877e-12
1.28396905314e-12
1.61326362003e-13
1.71428760469e-14
1.5566190704e-15
1.21954326144e-16
8.32774546152e-18
5.02000199014e-19
2.71450523567e-20
1.34753581709e-21
5.78275277663e-23
1.94057048396e-24
3.03710487144e-06
2.33354658886e-05
7.6659691855e-14
1.30204974383e-07
1.04908429152e-08
1.6716321025e-09
3.99890528616e-10
8.92305680035e-11
1.69842533232e-11
2.75319233717e-12
3.74982611638e-13
4.29628279022e-14
4.17403599994e-15
3.46986664033e-16
2.49232032676e-17
1.56543082346e-18
8.71933913298e-20
4.38872701573e-21
1.85774340967e-22
5.89325423525e-24
4.4528544665e-06
3.10498024751e-05
0
2.06880060822e-07
1.22905026507e-08
2.4486643814e-09
5.855445643e-10
1.53582325038e-10
3.16904487382e-11
5.55734767982e-12
8.17473858264e-13
1.00785766867e-13
1.04724858423e-14
9.2451270663e-16
6.99610637074e-17
4.58732227902e-18
2.63708144441e-19
1.34840886717e-20
5.6456137212e-22
1.69762900653e-23
4.16725791163e-06
2.39873570519e-05
0.000510887120732
3.26391812757e-08
1.27276507354e-08
3.75323191191e-09
8.52803921684e-10
2.51762314758e-10
5.72741329282e-11
1.0734678539e-11
1.69584452638e-12
2.24188232556e-13
2.48671412484e-14
2.32957735559e-15
1.85747825242e-16
1.27233950726e-17
7.55813931786e-19
3.93308148271e-20
1.63399224519e-21
4.68184453155e-23
4.47456852941e-06
2.27756466509e-05
0.00167511468836
2.52250593232e-08
8.07555114285e-09
4.90675543462e-09
1.42826544154e-09
4.55810074099e-10
1.0722902656e-10
2.07494013955e-11
3.4390942772e-12
4.81441870539e-13
5.66219752666e-14
5.60842854142e-15
4.70351619898e-16
3.36393515686e-17
2.06601539208e-18
1.09587861265e-19
4.53320850755e-21
1.24620960254e-22
4.13029620037e-06
1.76349899604e-05
0.000548065768143
9.795981622e-16
5.96494567998e-08
2.70808788147e-08
3.84306751865e-09
8.79152646e-10
2.06755558659e-10
4.02819381969e-11
6.87407979444e-12
1.00640670977e-12
1.24545507803e-13
1.29856427835e-14
1.14270369565e-15
8.52466174793e-17
5.41453664038e-18
2.93223766071e-19
1.21222345112e-20
3.22279872908e-22
3.71821660859e-06
1.45435236076e-05
0.000182248562324
8.61520955265e-17
6.94489970364e-08
2.41421281279e-08
5.13210558753e-09
1.20053713197e-09
3.33889607253e-10
7.16633526478e-11
1.2961484296e-11
2.00625875037e-12
2.62409975666e-13
2.8844048276e-14
2.66480651554e-15
2.07481459432e-16
1.36450404238e-17
7.5611140955e-19
3.13720966332e-20
8.13699015775e-22
3.21176239977e-06
1.13162066877e-05
9.44590781357e-05
7.65205894467e-05
1.00878298435e-08
8.21040820036e-09
3.80072040254e-09
1.18587680175e-09
4.41227919426e-10
1.11100328902e-10
2.23412761891e-11
3.73943524283e-12
5.2320095236e-13
6.10570345592e-14
5.94703011933e-15
4.84664683025e-16
3.30911968825e-17
1.88232894916e-18
7.87692360652e-20
2.01206988203e-21
2.80688186455e-06
9.18443312975e-06
6.14829605858e-05
0.000516159866165
5.17295456495e-09
1.92857399457e-09
1.78742780987e-09
9.30383943818e-10
5.03760879953e-10
1.57513616032e-10
3.55959773295e-11
6.52074418775e-12
9.84695872725e-13
1.22829523799e-13
1.2676486143e-14
1.08562066985e-15
7.72317833203e-17
4.52763821402e-18
1.92124888203e-19
4.88084027088e-21
2.63756949762e-06
8.57727828149e-06
5.056694446e-05
0.00104847856553
1.64604523101e-08
1.18636786352e-09
1.13997536965e-09
6.703750621e-10
5.34670219394e-10
2.13459567009e-10
5.42596673289e-11
1.08007332897e-11
1.7638003287e-12
2.35694256382e-13
2.58499638746e-14
2.33374609141e-15
1.73586748489e-16
1.05300515197e-17
4.55576652975e-19
1.16230608351e-20
2.71497280676e-06
8.87036401091e-06
4.49782194916e-05
0.00157289425391
2.14703403458e-18
1.4537053128e-08
1.75117540206e-08
3.4947347616e-09
8.52752125672e-10
3.15947260873e-10
8.36615065379e-11
1.75657538691e-11
3.05086819907e-12
4.34713555281e-13
5.06416033917e-14
4.82639675514e-15
3.762999453e-16
2.37037868373e-17
1.05093815093e-18
2.71761785306e-20
2.79784034244e-06
8.67533523534e-06
3.75650344514e-05
0.000976469563852
1.02711011056e-13
1.00031851903e-08
8.54578991315e-09
3.82416527726e-09
8.45934747597e-10
4.03878867175e-10
1.21759220793e-10
2.75233008243e-11
5.08161149333e-12
7.71368160473e-13
9.54709629369e-14
9.61765274437e-15
7.87755460324e-16
5.16915162586e-17
2.35958151669e-18
6.2373044056e-20
2.74217596589e-06
7.79561697247e-06
2.90499911587e-05
0.000470641559899
6.35067958942e-05
3.70491956602e-09
1.34128297687e-09
1.3725136447e-09
5.57565315103e-10
4.12581993879e-10
1.59050554259e-10
4.03044879584e-11
8.06789673748e-12
1.31127704834e-12
1.72974507061e-13
1.84648867702e-14
1.59304058601e-15
1.09240031483e-16
5.15666862607e-18
1.40433688211e-19
2.61996204709e-06
6.88467552323e-06
2.29563601827e-05
0.000258242010501
0.000310683697327
1.35332738326e-08
3.20390583584e-10
3.87376183776e-10
2.81307186296e-10
3.44405594838e-10
1.87223378306e-10
5.53612596637e-11
1.21820615568e-11
2.13228616956e-12
3.00882438602e-13
3.41402079442e-14
3.11163183912e-15
2.23706779077e-16
1.09664025199e-17
3.09876068789e-19
2.5117717021e-06
6.21637673635e-06
1.92780913108e-05
0.000166675965934
0.000616259594438
4.21834472123e-13
1.31699063965e-08
7.65836488552e-09
1.13324291819e-09
3.91495523579e-10
2.207777683e-10
7.33183398548e-11
1.75477013227e-11
3.32720477332e-12
5.03029829031e-13
6.08139387973e-14
5.87133133628e-15
4.4390293272e-16
2.26861532992e-17
6.69360481186e-19
2.46643726044e-06
5.86164528131e-06
1.74010378774e-05
0.000121136576008
0.0011309722876
1.832015027e-18
1.16520677984e-08
1.15274191476e-08
2.3654379898e-09
4.22468838189e-10
2.53013179326e-10
9.4636954904e-11
2.44605862965e-11
4.99714633713e-12
8.09620721176e-13
1.04459275091e-13
1.07072724507e-14
8.53629081081e-16
4.5639726814e-17
1.41394243643e-18
2.49611214745e-06
5.745553779e-06
1.65315665348e-05
9.55314289133e-05
0.00120370905518
2.73911768235e-15
8.04780835593e-09
4.6296426401e-09
1.66220495458e-09
3.36111746702e-10
2.54849936841e-10
1.13788010348e-10
3.2972891929e-11
7.22607460704e-12
1.25598869715e-12
1.73206704796e-13
1.88863588068e-14
1.59146815388e-15
8.92870708273e-17
2.91839474096e-18
2.56939314993e-06
5.69576269664e-06
1.57860578487e-05
7.84634999794e-05
0.00104208033573
4.12507032016e-08
2.06060220414e-08
5.36200973976e-10
5.24296397812e-10
1.89606903143e-10
2.15193926605e-10
1.25978250284e-10
4.22184116003e-11
1.00632409498e-11
1.87994512128e-12
2.77682125142e-13
3.22609212331e-14
2.87878550994e-15
1.69905559453e-16
5.88258996158e-18
2.65628727006e-06
5.63884809862e-06
1.50488388936e-05
6.69391874176e-05
0.000858836686419
0.000116343820537
5.89475229017e-07
1.89854661378e-10
1.36470932565e-10
1.06520851204e-10
1.50415538298e-10
1.26307441017e-10
5.05401484894e-11
1.34993914442e-11
2.72163690425e-12
4.31178850101e-13
5.34420830008e-14
5.05746065311e-15
3.14635530645e-16
1.15767753082e-17
2.74330291787e-06
5.59148303966e-06
1.44721974722e-05
5.92121592283e-05
0.000688509375751
0.000307437870867
4.7556735457e-15
8.89777153729e-09
4.38733910791e-09
5.4873485284e-10
1.55800121538e-10
1.28685065315e-10
5.87749108004e-11
1.74842341019e-11
3.81727440729e-12
6.49204446184e-13
8.59371796122e-14
8.63548772548e-15
5.67230305964e-16
2.2238225741e-17
2.82595098551e-06
5.56723290663e-06
1.40498015901e-05
5.34243604666e-05
0.000540808896656
0.000577631385473
1.83548817999e-18
8.69806728191e-09
7.74954348588e-09
1.27714326069e-09
1.61819157564e-10
1.30857087344e-10
6.67612750833e-11
2.17792663368e-11
5.18896968121e-12
9.4796680067e-13
1.34166216552e-13
1.43335269764e-14
9.95594913142e-16
4.16810378528e-17
2.91371391219e-06
5.60521398816e-06
1.38505348867e-05
4.9471027783e-05
0.000435230683359
0.000809605075304
1.24218746765e-17
1.49858817014e-08
5.31914506955e-09
1.05546281381e-09
1.38724201181e-10
1.22554837229e-10
7.26165368287e-11
2.60957980076e-11
6.83981347795e-12
1.34296594025e-12
2.03397112786e-13
2.3128658989e-14
1.70107735723e-15
7.61908041928e-17
3.02358726277e-06
5.74335484118e-06
1.39435255691e-05
4.73716975262e-05
0.000368036945491
0.000898654412904
1.78740354396e-15
2.06544727625e-07
1.67956751739e-09
5.9778143885e-10
1.18002988388e-10
1.0264338308e-10
7.45206865703e-11
3.07088727652e-11
8.75661860786e-12
1.84884742354e-12
2.99721113402e-13
3.62996096639e-14
2.82971371259e-15
1.35794919418e-16
3.17118788574e-06
5.99358048247e-06
1.42792312875e-05
4.65866527564e-05
0.000324083018217
0.000921679138445
2.44370830124e-12
8.33075465829e-09
1.06950490075e-08
2.1636362384e-09
1.9825290303e-10
9.59337898134e-11
7.46082598016e-11
3.53122592825e-11
1.0903755748e-11
2.47274304525e-12
4.2981430285e-13
5.54580084357e-14
4.58493640763e-15
2.36002931406e-16
3.36779132926e-06
6.34169292018e-06
1.47473754184e-05
4.64278831074e-05
0.000289138508222
0.000908707339482
4.14483602224e-05
1.38830117769e-19
2.63249552766e-08
5.30825709866e-09
4.19709102634e-10
1.01703281505e-10
7.46332232971e-11
3.88874894574e-11
1.32180876041e-11
3.22028678378e-12
6.00283456848e-13
8.25315316377e-14
7.23949885291e-15
4.00061174873e-16
3.64280422303e-06
6.82166475465e-06
1.54381838607e-05
4.71733955893e-05
0.00026435961608
0.000860320337686
0.000201537162929
0
3.25190491256e-08
1.09131986946e-08
8.46565119139e-10
1.0788627695e-10
7.34537132808e-11
4.16355450526e-11
1.56138340097e-11
4.09311125699e-12
8.17231037851e-13
1.19725368147e-13
1.11460719054e-14
6.61776622558e-16
4.04068364773e-06
7.48003718738e-06
1.64725114378e-05
4.91142572205e-05
0.000249530892257
0.000801630310699
0.000309447600665
5.55980214246e-15
6.52452580189e-08
1.47576608752e-08
1.11136305192e-09
1.03057428451e-10
7.06647598713e-11
4.36236752851e-11
1.79703033468e-11
5.08733520102e-12
1.08662302317e-12
1.69545074792e-13
1.6751301811e-14
1.069184395e-15
4.61011592184e-06
8.36631612704e-06
1.79580443639e-05
5.25037157999e-05
0.00024355824708
0.000750305750343
0.000387520359593
2.41552822547e-16
7.88183778674e-07
1.5119030059e-08
1.29684006622e-09
1.14813441227e-10
6.56194774131e-11
4.44715385888e-11
2.00856632046e-11
6.19491753614e-12
1.41437466136e-12
2.34832530876e-13
2.46137193086e-14
1.6893369585e-15
5.39394609599e-06
9.53181585782e-06
2.00102538734e-05
5.75606884359e-05
0.000244460000589
0.000707800423705
0.000443312274819
2.58076507212e-15
5.65096992084e-08
3.85358241173e-08
3.46498582226e-09
1.91637100849e-10
6.83304487035e-11
4.51705872358e-11
2.19823255319e-11
7.40329450058e-12
1.80511354643e-12
3.18628386283e-13
3.54100933559e-14
2.61369615019e-15
6.43444190628e-06
1.10515866579e-05
2.27922427905e-05
6.44903919943e-05
0.000249921229245
0.000669805334592
0.000486810132386
5.46328300802e-15
3.15561449493e-11
6.2690990327e-08
6.78676213085e-09
3.56331521076e-10
7.67133954199e-11
4.60890783376e-11
2.37952023571e-11
8.69294062018e-12
2.26092499692e-12
4.23856959937e-13
4.99175909974e-14
3.96305659209e-15
7.80145340219e-06
1.30597474071e-05
2.65749709086e-05
7.36343830195e-05
0.000258686725442
0.000635797179614
0.000515342846651
2.54333694341e-14
0
9.30012620884e-08
1.22638537203e-08
6.16599998403e-10
8.20936540572e-11
4.70480952532e-11
2.55554658163e-11
1.00111698193e-11
2.7793911074e-12
5.53148916404e-13
6.89944904883e-14
5.89257624662e-15
9.62736922193e-06
1.57816987198e-05
3.17700499336e-05
8.54182589665e-05
0.000270114725404
0.000605463201734
0.000529499928405
8.46677302389e-10
1.14617600821e-19
1.64972720597e-07
2.08206946018e-08
1.00300118515e-09
8.89408974289e-11
4.66330732759e-11
2.68429853201e-11
1.13295409017e-11
3.34916182593e-12
7.08929735195e-13
9.3591929595e-14
8.59948088144e-15
1.21407490113e-05
1.95677565432e-05
3.8933911628e-05
0.000100232066631
0.00028365918303
0.000578782522914
0.000532829000182
1.97319643806e-06
1.3849572678e-18
4.54156474156e-07
3.3120624996e-08
1.48654692552e-09
1.05267265107e-10
4.59598686219e-11
2.76711932586e-11
1.26045349594e-11
3.97213428256e-12
8.93624117813e-13
1.24778060452e-13
1.23334735918e-14
1.57040241934e-05
2.49304838582e-05
4.87374667103e-05
0.000118312450085
0.000298726847068
0.000555635922368
0.000527007259547
3.04278822964e-05
0
2.36363984933e-07
6.31893855652e-08
3.1589100705e-09
1.70092238862e-10
4.944071476e-11
2.84925635815e-11
1.3806664857e-11
4.6436952667e-12
1.10926404386e-12
1.637043216e-13
1.7404280724e-14
2.08570412686e-05
3.25634484902e-05
6.18710984907e-05
0.000139612207661
0.000314480860636
0.000534989471192
0.000512184546339
6.82348088602e-05
1.14550438841e-18
1.35366485512e-08
9.55287558894e-08
6.31364102492e-09
2.80402602439e-10
5.69540178523e-11
2.96595814542e-11
1.49478957794e-11
5.35885342322e-12
1.35708276459e-12
2.11509711783e-13
2.41820750134e-14
2.83431150663e-05
4.32965020266e-05
7.88970344022e-05
0.000163701020206
0.000329808033158
0.000515536096709
0.000490473573716
9.37781981934e-05
6.5694200745e-16
1.63059057847e-10
1.27755799438e-07
1.09806101455e-08
4.66784307512e-10
6.72351086093e-11
3.10669949384e-11
1.60365815596e-11
6.11177068137e-12
1.63739645914e-12
2.6925643134e-13
3.30962238622e-14
3.90670879574e-05
5.79541115669e-05
0.000100043334765
0.000189666101544
0.000343511887322
0.00049655628292
0.000462104356876
0.000107874068983
0
3.55358568301e-12
1.50526691397e-07
1.9345226842e-08
7.93661122627e-10
8.28284206242e-11
3.27584720893e-11
1.70712303407e-11
6.89749366187e-12
1.95004852714e-12
3.37969409707e-13
4.46412842448e-14
5.3922755935e-05
7.70834814139e-05
0.000124932806289
0.000216029848117
0.0003543462463
0.000477087802665
0.0004318884673
0.000112305475988
1.49124636512e-19
4.78349202542e-14
1.9440580788e-07
3.01986112832e-08
1.42875621292e-09
1.13347208462e-10
3.61002732605e-11
1.8137933768e-11
7.7179905562e-12
2.29508093613e-12
4.18710483034e-13
5.9385602068e-14
7.34448992994e-05
0.000100571024829
0.000152324326889
0.000240846307063
0.00036118924929
0.000456503255867
0.000399653439927
0.000108185537675
4.6840724962e-18
1.18270325357e-14
2.19771126097e-07
4.32330046506e-08
2.69200202832e-09
1.74573910724e-10
4.23439073782e-11
1.94872752665e-11
8.59162058794e-12
2.67357831285e-12
5.12581300238e-13
7.79657898388e-14
9.73212742589e-05
0.00012724817566
0.000180040403508
0.000262007081769
0.000363272522894
0.000434371162224
0.000365311281631
9.63333286513e-05
0
0
1.35061033172e-07
5.70517322559e-08
5.1340432847e-09
3.0506946126e-10
5.30551420191e-11
2.16210220979e-11
9.56930539752e-12
3.0895501529e-12
6.2073832145e-13
1.01062163253e-13
0.000123942816106
0.000154727274826
0.000205293003461
0.000277697412251
0.000360323549027
0.000410318290293
0.000328726960839
7.70686149609e-05
9.75623282476e-16
0
4.9489041623e-08
6.91621184182e-08
9.08480485499e-09
5.39519608707e-10
7.18509899998e-11
2.49815639029e-11
1.07390572849e-11
3.55248510177e-12
7.44557648936e-13
1.29374538364e-13
0.000150363157507
0.000179792943385
0.000225416514333
0.000286897501852
0.0003526083248
0.000383926656082
0.00028965285466
4.93602892866e-05
1.67764750033e-16
0
1.53082687424e-08
8.07732272439e-08
1.4318058874e-08
9.53833091952e-10
1.02546716361e-10
3.00345882075e-11
1.22217538291e-11
4.07960445421e-12
8.85971360781e-13
1.63620980535e-13
0.000173060754767
0.000199449202972
0.000238793439459
0.000289672036901
0.000340792301574
0.000354598362439
0.000247402723804
1.42724112921e-05
1.09237055803e-16
0
4.59379279708e-09
9.30141703992e-08
2.05390934169e-08
1.62159061893e-09
1.53318973776e-10
3.73656584067e-11
1.41623976633e-11
4.69666366671e-12
1.04783760687e-12
2.0457948472e-13
0.000189394738197
0.000212137136557
0.000245321053649
0.00028696541379
0.000325328212539
0.000321124509575
0.000203489410884
2.95340241998e-07
1.074465037e-16
0
1.49041627655e-09
1.03599751435e-07
2.75232621352e-08
2.67195087088e-09
2.36846622922e-10
4.79337860138e-11
1.67297071749e-11
5.4377287697e-12
1.23428139207e-12
2.53184123465e-13
0.000198753132105
0.000218164358353
0.000246071020147
0.000279790119678
0.000305951321458
0.000282834120944
0.000163553476501
1.10268779372e-10
2.36552609859e-16
0
6.0075833973e-10
1.08198059244e-07
3.50271282326e-08
4.27818125877e-09
3.70419043883e-10
6.28891303229e-11
2.01102320188e-11
6.34394604089e-12
1.4511243087e-12
3.10743159849e-13
0.000202256200167
0.000218888278484
0.000242225876414
0.000268399796185
0.000281478560074
0.000239765072681
0.000127574787621
2.16978868152e-12
3.69295112031e-17
0
3.17689248148e-10
1.04387318546e-07
4.24885783991e-08
6.58362150706e-09
6.001432956e-10
8.63334394716e-11
2.46059439159e-11
7.4667650454e-12
1.70652521535e-12
3.79306384168e-13
0.000201281318889
0.000215339756665
0.000234067998482
0.00025190219975
0.000250330476254
0.000193539677187
8.70895990693e-05
0
1.21475301499e-17
0
2.12857816215e-10
9.40263554319e-08
4.87311696141e-08
9.49027591199e-09
9.64270519357e-10
1.23262043568e-10
3.06752545536e-11
8.86664136423e-12
2.01188527768e-12
4.62298480724e-13
0.000196192628962
0.000207337136976
0.000220621333665
0.000228541407032
0.000211422515895
0.000146895569626
2.6270781451e-05
0
8.75401624791e-18
0
1.71495946282e-10
8.01553327119e-08
5.30938114145e-08
1.28594123969e-08
1.51663094994e-09
1.79130574021e-10
3.88444992969e-11
1.06141254709e-11
2.38354109295e-12
5.65454305563e-13
0.000186045444266
0.000193533864292
0.000200101058733
0.000196582097588
0.000165497554569
0.000102553816435
6.08140641207e-10
0
2.00399136143e-18
0
1.76323767809e-10
6.67962192625e-08
5.53630541663e-08
1.65446624653e-08
2.31071315837e-09
2.64456571047e-10
4.97626886397e-11
1.27904573094e-11
2.84526946986e-12
6.98132473753e-13
0.000169080494453
0.000172131565524
0.000171120334829
0.000156889086703
0.000119738976698
4.99658603699e-05
3.22449762171e-15
1.15050251831e-16
3.6214159569e-15
0
2.25104254998e-10
5.59604560309e-08
5.58857066874e-08
2.00807426125e-08
3.34343174598e-09
3.88722388986e-10
6.42815437334e-11
1.54820418941e-11
3.43089273947e-12
8.75013669213e-13
0.000144098413606
0.000142369044442
0.000134169898106
0.000113101245417
7.35921767175e-05
5.64713189764e-09
0
3.31093898095e-17
5.34238326792e-15
3.04278788448e-16
3.29914327127e-10
4.77023066104e-08
5.49158258515e-08
2.29506130862e-08
4.64089034123e-09
5.68608106182e-10
8.38618252789e-11
1.8797409462e-11
4.18772321776e-12
1.11789185877e-12
0.000112303074949
0.000106514430162
9.35586671081e-05
6.76017524226e-05
3.46050425875e-06
5.55128791443e-16
1.52423277326e-16
0
0
2.86404594633e-15
5.08726763757e-10
4.13888473103e-08
5.2705004878e-08
2.49229820369e-08
6.1311389137e-09
8.22849407568e-10
1.10593220735e-10
2.28439927377e-11
5.17542570333e-12
1.46178792282e-12
7.59736971393e-05
6.60904675739e-05
4.48499661674e-05
1.20487132364e-06
0
8.48768837939e-17
9.69645948371e-17
1.78589108801e-14
1.39507051936e-16
6.93085182704e-14
6.77475057467e-10
3.53035947123e-08
5.02467504403e-08
2.64847981267e-08
7.77002518425e-09
1.17601247013e-09
1.44373903608e-10
2.73549776736e-11
6.41919820024e-12
1.95356759321e-12
3.37296444596e-28
6.43948949209e-28
4.3567144029e-28
7.31453496911e-28
1.18516804195e-27
1.40403580757e-27
4.26035590042e-27
3.69324727873e-27
1.453802274e-26
9.34321443816e-27
4.57355253291e-26
2.3485717707e-26
1.3469055919e-25
5.84504871592e-26
3.76256882592e-25
1.43741391055e-25
1.00783284953e-24
3.49527232761e-25
2.61436056506e-24
8.42635835838e-25
6.62389092249e-24
2.02042654527e-24
1.65006153716e-23
4.83154266479e-24
4.06075035697e-23
1.15465601864e-23
9.90384651855e-23
2.76114862322e-23
2.39778535164e-22
6.60957297591e-23
5.76479899698e-22
1.58310112606e-22
1.37558824024e-21
3.7896180967e-22
3.25426209671e-21
9.05165822418e-22
7.62170338199e-21
2.15317179117e-21
1.76390135897e-20
5.09152615465e-21
4.02588909385e-20
1.19328226417e-20
9.04383302917e-20
2.76268809322e-20
1.99573934567e-19
6.3022057146e-20
4.31905627037e-19
1.41346296033e-19
9.15405504741e-19
3.11137669724e-19
1.89764130879e-18
6.71492783144e-19
3.84429314157e-18
1.41802309671e-18
7.60399678889e-18
2.92564427484e-18
1.46740909078e-17
5.89026624306e-18
2.76134084486e-17
1.15625234911e-17
5.06622495086e-17
2.21198022333e-17
9.06378123223e-17
4.12369369966e-17
1.58185860116e-16
7.4932106046e-17
2.69517281874e-16
1.32793156368e-16
4.48796822179e-16
2.29725047542e-16
7.31242660462e-16
3.88349410624e-16
1.16682686372e-15
6.42121520671e-16
1.82467296003e-15
1.03925494267e-15
2.79875567591e-15
1.64774057737e-15
4.2152164742e-15
2.56174141902e-15
6.24016767614e-15
3.90903989109e-15
9.08629159954e-15
5.85855622945e-15
1.30183683464e-14
8.62720983381e-15
1.8359331521e-14
1.24860665818e-14
2.54953067907e-14
1.77646006139e-14
3.48736972941e-14
2.484978393e-14
4.69895622587e-14
3.4176055532e-14
6.23662200368e-14
4.62094177069e-14
8.15428151084e-14
6.14354319267e-14
1.05092929156e-13
8.03753550724e-14
1.33689477753e-13
1.03645500457e-13
1.68268813219e-13
1.32108354846e-13
2.10316511747e-13
1.67134833243e-13
2.62385684309e-13
2.11093361215e-13
3.28801159632e-13
2.67982058916e-13
4.16398078321e-13
3.43938198016e-13
5.35977396782e-13
4.48693133535e-13
7.02681163587e-13
5.95187043276e-13
9.40192997997e-13
8.01377197853e-13
1.34459899324e-12
1.19680245001e-12
)
;

boundaryField
{
    inletfuel
    {
        type            calculated;
        value           uniform 0;
    }
    inletair
    {
        type            calculated;
        value           uniform 0;
    }
    outlet
    {
        type            calculated;
        value           uniform 0;
    }
    axis
    {
        type            empty;
    }
    leftside
    {
        type            calculated;
        value           uniform 0;
    }
    burnerwall
    {
        type            calculated;