/*--------------------------------*- C++ -*----------------------------------*\
  =========                 |
  \\      /  F ield         | OpenFOAM: The Open Source CFD Toolbox
   \\    /   O peration     | Website:  https://openfoam.org
    \\  /    A nd           | Version:  dev
     \\/     M anipulation  |
\*---------------------------------------------------------------------------*/
FoamFile
{
    version     2.0;
    format      ascii;
    class       volScalarField;
    location    "0.3";
    object      edc::R_H;
}
// * * * * * * * * * * * * * * * * * * * * * * * * * * * * * * * * * * * * * //

dimensions      [1 -3 -1 0 0 0 0];

internalField   nonuniform List<scalar> 
1629
(
-1.52912790421e-24
-1.80968076003e-24
-2.62659714336e-24
-4.57626204209e-22
-9.56508311075e-22
-4.08441806884e-21
-1.1293543631e-18
-7.13584408571e-18
-1.39400624847e-16
-1.5240252558e-15
-9.41501255732e-15
-1.02565075716e-13
-1.39262292107e-13
-6.85051836271e-13
-4.57797471669e-12
-9.69462772146e-12
-4.85573892891e-11
-9.25730499956e-10
-1.10896823727e-09
-1.78978939666e-08
-3.54771750201e-07
-1.48727088621e-07
-2.07122965583e-06
-4.2707556281e-05
-2.02777891475e-07
-1.74107052184e-06
-2.1029698583e-05
-1.58694853259e-07
-8.97522775798e-07
-6.88779660006e-06
-9.89735687542e-08
-3.80957399287e-07
-1.95262375975e-06
-8.29384911162e-08
-3.01580001072e-07
-1.84531299109e-06
-2.74646634569e-07
-1.26928447434e-06
-9.27281819248e-06
-4.81348582721e-07
-1.8564012156e-06
-1.09118929622e-05
-6.19277803926e-07
-2.0532768155e-06
-1.02854525041e-05
-5.49889599757e-07
-1.52856547756e-06
-6.22529324898e-06
-4.18860926728e-07
-1.02598290723e-06
-3.6655383885e-06
-3.26710642398e-07
-7.49931388842e-07
-2.53989881643e-06
-2.7726376512e-07
-6.10181467071e-07
-1.97853067874e-06
-2.67972914792e-07
-5.73368557196e-07
-1.80039922431e-06
-2.68186417954e-07
-5.46553625547e-07
-1.60759545845e-06
-2.64723031299e-07
-5.09199201501e-07
-1.3892110273e-06
-2.55780966852e-07
-4.63353089975e-07
-1.16630923781e-06
-2.48041961839e-07
-4.23761979776e-07
-9.82814476909e-07
-2.48118549472e-07
-4.00036450047e-07
-8.53662661072e-07
-2.55383716935e-07
-3.87184567869e-07
-7.56052018998e-07
-2.69349763417e-07
-3.84895795627e-07
-6.94239827809e-07
-2.88368104014e-07
-3.92576702408e-07
-6.70339899683e-07
-3.00267285039e-07
-3.92353154628e-07
-6.42642207541e-07
-3.00896499614e-07
-3.8151904659e-07
-6.04063935924e-07
-2.97163976233e-07
-3.69623532456e-07
-5.69590719633e-07
-2.98926099878e-07
-3.6779649629e-07
-5.55964434171e-07
-3.17477537886e-07
-3.89311502098e-07
-5.83550450521e-07
-3.58575738044e-07
-4.39261327635e-07
-6.55162409865e-07
-4.10425689045e-07
-4.99094202874e-07
-7.31418252645e-07
-4.6361673445e-07
-5.56343324004e-07
-7.94659493657e-07
-5.22919812305e-07
-6.19134154107e-07
-8.62537095126e-07
-6.01965535758e-07
-7.04374969732e-07
-9.60568793858e-07
-7.14124621046e-07
-8.27526693568e-07
-1.10863165276e-06
-8.71627867738e-07
-1.00153529772e-06
-1.32123599829e-06
-1.08762739196e-06
-1.23990286379e-06
-1.61358101097e-06
-1.37838877523e-06
-1.56026741239e-06
-2.0036166223e-06
-1.76382186542e-06
-1.98212797341e-06
-2.51043358197e-06
-2.27201588208e-06
-2.53440823611e-06
-3.16433955956e-06
-2.95303581065e-06
-3.27013256403e-06
-4.02486877216e-06
-3.87876295229e-06
-4.26396407108e-06
-5.17258067941e-06
-5.1287334168e-06
-5.59536153373e-06
-6.68578582041e-06
-6.76885352245e-06
-7.32559931806e-06
-8.61428241141e-06
-8.82723223227e-06
-9.47493727536e-06
-1.09614871421e-05
-1.12858164585e-05
-1.20181319591e-05
-1.36869220056e-05
-1.41139160487e-05
-1.49231261279e-05
-1.67580532399e-05
-1.7379628962e-05
-1.82696421059e-05
-2.02827891097e-05
-2.1453233887e-05
-2.24576927193e-05
-2.47298922942e-05
-2.7126297573e-05
-2.83179724053e-05
-3.10163755199e-05
-3.52141855051e-05
-3.66715841338e-05
-3.99711526553e-05
-4.61878202391e-05
-4.79651636556e-05
-5.19793535382e-05
-6.03362803115e-05
-6.245568781e-05
-6.72287115032e-05
-7.88774376626e-05
-8.13944875854e-05
-8.70375045903e-05
-0.000107104063186
-0.000110338021945
-0.000117587778774
-0.00014373747111
-0.000147608223096
-0.000156252287748
-0.000202802867923
-0.000208053005276
-0.000219821346554
-0.00029568025759
-0.000303379608098
-0.000320783183702
-0.000506866724078
-0.000522843048794
-0.000559232721389
-6.91280398312e-13
-2.23273119354e-11
-1.62873424559e-08
-4.15332557177e-06
-0.000643187770614
-0.000194221762483
-4.21195076197e-05
-8.34581235209e-06
-1.23101233107e-05
-6.5913747188e-05
-6.20685438432e-05
-5.08089748249e-05
-2.47116082003e-05
-1.31603410533e-05
-8.90930647945e-06
-6.67212692539e-06
-5.89634941101e-06
-4.8998701832e-06
-3.91534632007e-06
-3.0186409294e-06
-2.33304978461e-06
-1.86452587556e-06
-1.52291375619e-06
-1.322954545e-06
-1.25363973142e-06
-1.17663245306e-06
-1.07484367882e-06
-9.83654075477e-07
-9.3674148487e-07
-9.69473821627e-07
-1.07663548962e-06
-1.17219119542e-06
-1.23365840358e-06
-1.30005798477e-06
-1.41334808125e-06
-1.59881195409e-06
-1.87354745948e-06
-2.25307798196e-06
-2.75424585001e-06
-3.39397649562e-06
-4.20384863647e-06
-5.25320432856e-06
-6.63013244124e-06
-8.40872712841e-06
-1.06206761849e-05
-1.32442598238e-05
-1.6220491622e-05
-1.95208421087e-05
-2.33006854842e-05
-2.81331959261e-05
-3.50583139074e-05
-4.49051642814e-05
-5.79548615241e-05
-7.42872030183e-05
-9.533118073e-05
-0.000128232420245
-0.000168855987483
-0.000237090113957
-0.000346631912144
-0.000613926124456
-7.34761244097e-16
-1.18710218595e-15
-2.09593088035e-15
-3.43805937552e-15
-3.26331901272e-15
-1.84938394248e-15
-7.00892821027e-16
-1.92310568978e-16
-4.05688887574e-17
-6.80777159371e-18
-9.25391378758e-19
-1.03187421283e-19
-9.53199015613e-21
-7.35904610366e-22
-4.79220318402e-23
-2.66132926057e-24
-1.27957985188e-25
-5.42504864371e-27
-2.11604434363e-28
-1.4508770222e-29
-1.42235092004e-14
-2.44021159667e-14
-4.61479779824e-14
-8.38850052396e-14
-7.61154308448e-14
-3.84133727912e-14
-1.26688240949e-14
-3.01917572587e-15
-5.58672617283e-16
-8.29401402228e-17
-1.00606098802e-17
-1.01048691566e-18
-8.49505664589e-20
-6.03714719111e-21
-3.66557309188e-22
-1.92641954662e-23
-8.9276637414e-25
-3.73328351925e-26
-1.46618261275e-27
-1.05313597671e-28
-2.03338450811e-13
-3.11834891468e-13
-6.15713515371e-13
-1.19467322881e-12
-1.01071152733e-12
-4.53916135718e-13
-1.31891641977e-13
-2.79203270842e-14
-4.64322902459e-15
-6.24196251453e-16
-6.91270828975e-17
-6.39428547568e-18
-4.99546527025e-19
-3.3302668227e-20
-1.91618847258e-21
-9.65533395638e-23
-4.35095416665e-24
-1.80901427853e-25
-7.20616198537e-27
-5.18572696907e-28
-2.45685621994e-12
-1.43874920523e-11
-1.23312177302e-11
-1.47472234631e-11
-1.04669543646e-11
-4.20206156683e-12
-1.10462217529e-12
-2.15074486592e-13
-3.31548232062e-14
-4.16465598841e-15
-4.34462241003e-16
-3.81503442116e-17
-2.85000891115e-18
-1.82955570315e-19
-1.02083708376e-20
-5.02686589057e-22
-2.2349176815e-23
-9.30505055404e-25
-3.85718920063e-26
-3.27999075762e-27
-7.88355495792e-11
-4.31204725877e-10
-3.72531239949e-10
-2.20808965387e-10
-1.16198143265e-10
-3.9746838113e-11
-9.26832078884e-12
-1.63810933937e-12
-2.31604768587e-13
-2.70320521883e-14
-2.65368405292e-15
-2.21785918737e-16
-1.5927250951e-17
-9.91474896302e-19
-5.40676313575e-20
-2.62193611785e-21
-1.15751574423e-22
-4.84434080462e-24
-2.10141175703e-25
-2.25959219917e-26
-8.01461457609e-08
-3.81588797932e-07
-3.61993189806e-08
-4.58505540236e-09
-1.41614458745e-09
-3.7525174221e-10
-7.53151998651e-11
-1.17941496791e-11
-1.51057834098e-12
-1.62992767903e-13
-1.50553185126e-14
-1.20139523749e-15
-8.33643525083e-17
-5.06310715825e-18
-2.71547727861e-19
-1.30416563436e-20
-5.74038134454e-22
-2.41558955601e-23
-1.0850924793e-24
-1.28885809152e-25
-4.40506483935e-05
-0.000832306116479
-1.55283770175e-05
-6.35775688224e-07
-2.87858882397e-08
-3.64725326175e-09
-5.56988646046e-10
-7.49130210261e-11
-8.63426231837e-12
-8.64516860713e-13
-7.58044522509e-14
-5.83934936262e-15
-3.95954958156e-16
-2.37118562712e-17
-1.2623124723e-18
-6.04798840039e-20
-2.66580586831e-21
-1.12690089867e-22
-5.17333972055e-24
-6.23803625001e-25
-0.0129539124947
0.0507074604233
-0.00699729429404
-0.000147515814006
-1.46945932522e-06
-3.69397495986e-08
-3.24591633214e-09
-3.61770353848e-10
-3.83585279347e-11
-3.68779557287e-12
-3.17454073638e-13
-2.43043471975e-14
-1.64947357938e-15
-9.92720068629e-17
-5.32360334337e-18
-2.57196995956e-19
-1.14248595903e-20
-4.85448310586e-22
-2.2580587189e-23
-2.60633040501e-24
-0.00197934407438
-0.0236291544374
-0.00114561206504
-4.44657473135e-05
-1.751648159e-06
-6.11897019382e-08
-6.31237424192e-09
-8.49914730153e-10
-1.04598414889e-10
-1.11431145648e-11
-1.03018305462e-12
-8.30939105507e-14
-5.8709535126e-15
-3.64995757862e-16
-2.0105110832e-17
-9.92760880841e-19
-4.48087934247e-20
-1.91930703943e-21
-9.01229960195e-23
-9.58922653066e-24
-0.000250418417888
-0.00239323069309
-0.000162663444908
-1.02651362856e-05
-1.19443272402e-06
-7.08157534143e-08
-8.87409102618e-09
-1.44807396891e-09
-2.13715691906e-10
-2.63171643384e-11
-2.71898536405e-12
-2.38947729724e-13
-1.80573863235e-14
-1.18442484319e-15
-6.81013050933e-17
-3.47744405539e-18
-1.60703641245e-19
-6.96541275256e-21
-3.29955150695e-22
-3.17210127356e-23
-3.25211232387e-05
-0.000192429621294
-0.0003117593211
-8.74477760125e-06
-1.0860305663e-06
-9.34591014475e-08
-1.26466016524e-08
-2.30461140419e-09
-3.92336653031e-10
-5.50590863855e-11
-6.34565942457e-12
-6.10380870403e-13
-4.97074133332e-14
-3.46856053781e-15
-2.09803629724e-16
-1.11511108918e-17
-5.30156199744e-19
-2.33227952916e-20
-1.11506427561e-21
-9.59912837653e-23
-0.000109689214055
-0.00509272940695
0.0133867343892
-0.00221922920645
-6.59027782582e-05
-1.20307074621e-06
-4.5808869847e-08
-5.28832639662e-09
-8.16211561312e-10
-1.17094129329e-10
-1.42883534393e-11
-1.46667785107e-12
-1.27244773819e-13
-9.40646064842e-15
-5.98253392616e-16
-3.31335344775e-17
-1.62310147418e-18
-7.25965207107e-20
-3.5049585097e-21
-2.69484329081e-22
-0.000578977085069
-0.0228897981042
0.0643714289328
-0.0080225817275
-0.000192111987737
-4.92437621811e-06
-1.20684644606e-07
-1.12675739289e-08
-1.64931507175e-09
-2.41463646809e-10
-3.08343078576e-11
-3.34077601607e-12
-3.06427804103e-13
-2.38931959287e-14
-1.59462777005e-15
-9.19817423501e-17
-4.64468480199e-18
-2.11502398796e-19
-1.0320838173e-20
-7.10092666762e-22
-0.000429899224519
-0.0100803141948
-0.0117141626612
-0.00342304987791
-8.93770012872e-05
-4.44583120423e-06
-1.61587526902e-07
-1.67222755556e-08
-2.68048618948e-09
-4.32281991332e-10
-6.00931182525e-11
-7.00352857103e-12
-6.85157868011e-13
-5.65911242026e-14
-3.97284176143e-15
-2.39087502712e-16
-1.24661908951e-17
-5.79344855655e-19
-2.86283596069e-20
-1.77231091327e-21
-0.000312352205582
-0.00575228767003
0.00119852164343
-0.00183356618168
-5.07841408125e-05
-2.76618098757e-06
-1.91062291662e-07
-2.12058899013e-08
-3.73195202632e-09
-6.76415746198e-10
-1.04686588244e-10
-1.33532174942e-11
-1.4098647309e-12
-1.24320589105e-13
-9.22936675344e-15
-5.81749238118e-16
-3.14266076754e-17
-1.49624265841e-18
-7.51019180576e-20
-4.21770304747e-21
-0.000117528079818
-0.00126671362361
-0.00994978431114
0.00503879101655
-0.000843631445294
-2.4931911432e-05
-6.42418371505e-07
-3.48632901192e-08
-5.29608890465e-09
-9.99610994761e-10
-1.68735461392e-10
-2.35011730793e-11
-2.68615750067e-12
-2.53958248703e-13
-2.00209949224e-14
-1.32690625853e-15
-7.45513709792e-17
-3.6527303338e-18
-1.8692890484e-19
-9.61628684799e-21
-5.97369898016e-05
-0.000652526055727
-0.0109218518822
0.0280621074232
-0.00341879657992
-7.87760494668e-05
-2.03846705742e-06
-6.35040603672e-08
-7.77047830388e-09
-1.43829890571e-09
-2.57674144328e-10
-3.87978173862e-11
-4.78840243944e-12
-4.85690240058e-13
-4.07437403747e-14
-2.84710176636e-15
-1.66936417641e-16
-8.45476114037e-18
-4.42815133926e-19
-2.10860294651e-20
-4.09075909389e-05
-0.000450872638727
-0.00915102793665
0.00785008192411
-0.00278326887525
-5.67482341209e-05
-2.13128730277e-06
-7.79217716215e-08
-9.9248551742e-09
-1.91483920079e-09
-3.68685142887e-10
-6.01836583603e-11
-8.02842031073e-12
-8.74491862554e-13
-7.81738651939e-14
-5.77153793461e-15
-3.54185338426e-16
-1.86184670547e-17
-1.00152460314e-18
-4.46136223564e-20
-2.93501566397e-05
-0.000294568878238
-0.00625738177891
0.00310289464826
-0.00209360177658
-3.86782487014e-05
-1.47076774013e-06
-8.36219999008e-08
-1.14516121938e-08
-2.3593931086e-09
-4.93926325546e-10
-8.79311191333e-11
-1.27152210441e-11
-1.48968784636e-12
-1.42098381812e-13
-1.11031434585e-14
-7.14910941162e-16
-3.9147942568e-17
-2.16955033864e-18
-9.13450990415e-20
-2.52981094285e-05
-0.000246217671267
-0.00465050700406
0.00427811385968
-0.00176380450447
-4.36443712705e-05
-1.60929286887e-06
-1.04618603767e-07
-1.32595342254e-08
-2.80923955675e-09
-6.32448148776e-10
-1.22473323917e-10
-1.91867367658e-11
-2.41745122409e-12
-2.46126409582e-13
-2.03723704192e-14
-1.37884834515e-15
-7.88915600126e-17
-4.51576762348e-18
-1.81460875513e-19
-1.91527245795e-05
-0.000162582489656
-0.00229714880456
-0.00342082021409
0.00617901001753
-0.00116075089323
-3.66153934694e-05
-9.78934076183e-07
-3.24199956198e-08
-4.24579590195e-09
-8.59862633009e-10
-1.70154214968e-10
-2.82113480871e-11
-3.78617181111e-12
-4.09770811941e-13
-3.58819183118e-14
-2.55411883598e-15
-1.53000489951e-16
-9.06134030203e-18
-3.50624003737e-19
-1.38314366934e-05
-0.000106078222288
-0.0012568646242
-0.0111640663205
0.0280585345695
-0.00388542671107
-9.8853889214e-05
-2.99197037783e-06
-6.85115790609e-08
-6.84453445644e-09
-1.22581130923e-09
-2.39115203823e-10
-4.10048871309e-11
-5.78780948053e-12
-6.6139887102e-13
-6.10729006361e-14
-4.56815528465e-15
-2.86773574418e-16
-1.75885003171e-17
-6.60548967202e-19
-9.54351681548e-06
-6.66312429541e-05
-0.00067062505346
-0.00775177737143
0.00314367977663
-0.00272800406264
-6.7232325001e-05
-2.41039100033e-06
-9.00900951817e-08
-9.19461065002e-09
-1.64383000164e-09
-3.27433132141e-10
-5.83879827872e-11
-8.64401701496e-12
-1.03911902733e-12
-1.00914851446e-13
-7.92316449579e-15
-5.2142443382e-16
-3.31279606573e-17
-1.21588905947e-18
-6.71365014644e-06
-4.41608517096e-05
-0.000399188140532
-0.00521094676714
0.00294954700154
-0.00194892273035
-5.65831864295e-05
-2.15401778918e-06
-1.10855610254e-07
-1.11689681543e-08
-2.0531710588e-09
-4.28654584586e-10
-8.05653589567e-11
-1.25663017312e-11
-1.58965443471e-12
-1.62236955802e-13
-1.3364262709e-14
-9.22280640004e-16
-6.0698471294e-17
-2.19027617332e-18
-5.07567565505e-06
-3.23406273568e-05
-0.000272227062419
-0.00383022238326
0.00280897620803
0.000718082855447
-0.000380657715996
-1.22460322405e-05
-3.68198248856e-07
-1.79731683396e-08
-2.70910577213e-09
-5.56598147329e-10
-1.08684460823e-10
-1.78163190147e-11
-2.37047050048e-12
-2.54146237979e-13
-2.19638695126e-14
-1.59007008768e-15
-1.08388679491e-16
-3.86512176134e-18
-4.02728331309e-06
-2.45683480494e-05
-0.000189940295391
-0.00243063375821
-0.00172196259033
0.00630654225744
-0.00121588602685
-3.44184989861e-05
-1.07574186915e-06
-3.08270178768e-08
-3.72927907649e-09
-7.24760935576e-10
-1.44325630064e-10
-2.47078709369e-11
-3.45096764375e-12
-3.88460237801e-13
-3.52227250827e-14
-2.67598609748e-15
-1.88886597957e-16
-6.68568293272e-18
-3.54341176922e-06
-2.10808127525e-05
-0.000155312821786
-0.00174074029665
-0.00822886051296
0.0218806711373
-0.00335282605328
-7.6689960993e-05
-2.05329517093e-06
-5.21300388865e-08
-5.19727388037e-09
-9.43964278686e-10
-1.89258783397e-10
-3.36168711346e-11
-4.91555423513e-12
-5.80345534241e-13
-5.51999214606e-14
-4.40180746979e-15
-3.2159813538e-16
-1.13402148793e-17
-3.45394411202e-06
-1.99515964501e-05
-0.000139918278529
-0.0013986885952
-0.0104000178146
0.0178313929716
-0.00440134550019
-0.000100521147708
-2.70832640761e-06
-7.95801607038e-08
-7.00769546692e-09
-1.21240449426e-09
-2.44786145732e-10
-4.49868057516e-11
-6.87079937821e-12
-8.49550197243e-13
-8.47062039584e-14
-7.08785821264e-15
-5.35586939989e-16
-1.88705576883e-17
-3.18689405486e-06
-1.68897305502e-05
-0.000105678275339
-0.000881333682641
-0.00619740669968
0.000243765285646
-0.00279770499238
-8.98643050911e-05
-2.92799354268e-06
-1.12761640743e-07
-8.9321164917e-09
-1.50921350165e-09
-3.10208383709e-10
-5.91792309939e-11
-9.4408527673e-12
-1.22133388025e-12
-1.27538618028e-13
-1.11902411015e-14
-8.73561061747e-16
-3.08224120366e-17
-2.79161053487e-06
-1.34806286187e-05
-7.61548382339e-05
-0.000553850901763
-0.00376536139025
0.0012523435898
0.000280331644118
-0.000360531729157
-1.09935683474e-05
-3.29893846949e-07
-1.42282997295e-08
-1.98211132407e-09
-3.94446913201e-10
-7.70398717119e-11
-1.27848155798e-11
-1.72731049175e-12
-1.88698037269e-13
-1.73441011621e-14
-1.3968183981e-15
-4.94323880609e-17
-2.43621013363e-06
-1.08681698533e-05
-5.69005216338e-05
-0.000376560027313
-0.0026550989449
0.000178542570923
0.00404168602476
-0.000951211020593
-2.63544954147e-05
-8.13184045021e-07
-2.24933616899e-08
-2.63179782223e-09
-4.99926958529e-10
-9.90985675488e-11
-1.70501812872e-11
-2.40261905967e-12
-2.74386679041e-13
-2.64003329512e-14
-2.19034281964e-15
-7.78257236917e-17
-2.22377296637e-06
-9.35380798858e-06
-4.65543220553e-05
-0.000289361955717
-0.0021313689639
-0.00366136874395
0.0125636737528
-0.00233343801067
-5.83639301305e-05
-1.5394752214e-06
-3.92783301216e-08
-3.64914496598e-09
-6.40292605542e-10
-1.26735761424e-10
-2.24499262986e-11
-3.29001204122e-12
-3.92282198526e-13
-3.94719299981e-14
-3.36821833446e-15
-1.20217899072e-16
-2.24090955126e-06
-9.14361157426e-06
-4.46200480851e-05
-0.000270266004556
-0.00197003559886
-0.00758253225626
0.0187005355261
-0.00403901877176
-0.00011729831541
-3.16152398912e-06
-8.03674644322e-08
-5.56173295295e-09
-8.56712037398e-10
-1.64307459774e-10
-2.95012260279e-11
-4.46089056441e-12
-5.53078059979e-13
-5.80567681677e-14
-5.08297522916e-15
-1.82215754915e-16
-2.43486589629e-06
-9.64785008836e-06
-4.57795631566e-05
-0.000265638581166
-0.0018404606983
-0.00925105228583
0.0172470139625
-0.00423537652537
-0.000248856201469
-7.08655899265e-06
-1.87648026367e-07
-9.25043077133e-09
-1.20761182071e-09
-2.18459815427e-10
-3.90683150956e-11
-6.03051051519e-12
-7.7247198808e-13
-8.42406975253e-14
-7.54130023948e-15
-2.7131803375e-16
-2.54564377945e-06
-9.44765415095e-06
-4.15744151595e-05
-0.000217379879768
-0.00126234688451
-0.00517305500877
-1.8245845202e-05
-0.00208954020431
-0.000293682756671
-8.66709773445e-06
-2.794064048e-07
-1.23469729284e-08
-1.56040477665e-09
-2.8124299058e-10
-5.10394579391e-11
-8.07527061171e-12
-1.06769120533e-12
-1.20672045381e-13
-1.10113582833e-14
-3.97262566973e-16
-2.55455460053e-06
-8.81998472971e-06
-3.59849950936e-05
-0.000170879821382
-0.000845489697093
-0.00276419511902
-9.86484770187e-05
0.000760707970742
-0.00053129344238
-1.38712297524e-05
-4.11673247999e-07
-1.45447046002e-08
-1.82595453064e-09
-3.39754306525e-10
-6.42088440646e-11
-1.05635325145e-11
-1.45068780785e-12
-1.70178400594e-13
-1.58056680988e-14
-5.71698915467e-16
-2.58130607642e-06
-8.41243754781e-06
-3.24554619081e-05
-0.000143745132062
-0.000640874411273
-0.00204344553366
0.000148298741668
0.00449781676459
-0.00115488891964
-2.92340484455e-05
-7.09347185241e-07
-1.97249380164e-08
-2.12672765321e-09
-3.95099087043e-10
-7.7834126806e-11
-1.34246707583e-11
-1.92770627806e-12
-2.35482232883e-13
-2.22561485203e-14
-8.07520799519e-16
-2.71474343269e-06
-8.4808696816e-06
-3.13541294464e-05
-0.000131284818977
-0.000544604707304
-0.00187304047075
-0.00155529215228
0.00820365228754
-0.00209364979604
-6.05649642919e-05
-1.42724992635e-06
-3.41295330333e-08
-2.69944417037e-09
-4.62852407463e-10
-9.26036862113e-11
-1.66633767503e-11
-2.50572350773e-12
-3.19334087236e-13
-3.07052898776e-14
-1.11851889502e-15
-2.99334187333e-06
-9.03628419837e-06
-3.21269968332e-05
-0.000127560017817
-0.000499703919158
-0.00183638711104
-0.00353129227478
0.011024237193
-0.00290033261818
-0.000131104173823
-3.12239538269e-06
-7.10185008107e-08
-3.86148805785e-09
-5.65784252913e-10
-1.10404862444e-10
-2.04000641672e-11
-3.19748515239e-12
-4.24702534706e-13
-4.14943433923e-14
-1.51865585866e-15
-3.43259242124e-06
-1.00237880444e-05
-3.42085480042e-05
-0.000128618782307
-0.000479136082538
-0.00179191817504
-0.00522922840886
0.0129341873501
-0.00365507149887
-0.000218383768544
-5.24842795239e-06
-1.25924844684e-07
-5.32906931995e-09
-6.90515200579e-10
-1.30899207793e-10
-2.46487961096e-11
-4.01007323581e-12
-5.54053220361e-13
-5.48913845515e-14
-2.01929897721e-15
-4.04015989214e-06
-1.13760501564e-05
-3.70826940212e-05
-0.000131351841327
-0.000463625259337
-0.00172425886659
-0.00622278978826
0.0131138086482
-0.00383814590424
-0.00033909077958
-8.12087036099e-06
-1.94307710878e-07
-6.658781936e-09
-8.01285944378e-10
-1.50837082487e-10
-2.91405869944e-11
-4.92757764042e-12
-7.07943516651e-13
-7.0979691733e-14
-2.62557737719e-15
-4.82370348256e-06
-1.30331848242e-05
-4.03127748686e-05
-0.000133543265233
-0.000442250495043
-0.0015801360781
-0.00611364203223
0.010803977088
-0.00302424462156
-0.00052372673004
-1.28631779164e-05
-2.88310977016e-07
-7.89480177792e-09
-8.81194965293e-10
-1.66964678817e-10
-3.34398329477e-11
-5.90870600992e-12
-8.84187506382e-13
-8.95974332928e-14
-3.33516132981e-15
-5.78779396851e-06
-1.49153493559e-05
-4.340024777e-05
-0.000133061738329
-0.000406055134096
-0.00132582726814
-0.00474282707745
0.00606614968993
-0.00120454981631
-0.000768724587879
-2.06204931743e-05
-4.20395095851e-07
-1.01726145371e-08
-9.58998547245e-10
-1.79104363568e-10
-3.72223854578e-11
-6.90070598557e-12
-1.07790007011e-12
-1.10320416554e-13
-4.13803264895e-15
-6.96156596533e-06
-1.70155012407e-05
-4.62215316728e-05
-0.000130108335479
-0.000361005496206
-0.00103867226403
-0.00298450842241
0.00210123899209
0.000857426162344
-0.00104044533399
-3.62096336071e-05
-7.14483048196e-07
-1.50621172874e-08
-1.07701353128e-09
-1.89226511139e-10
-4.03623893827e-11
-7.85040534308e-12
-1.28146121853e-12
-1.32381013186e-13
-5.01186276087e-15
-8.43463252263e-06
-1.94908555162e-05
-4.93047244914e-05
-0.000127718135046
-0.000325373505235
-0.000844579287123
-0.00198728231146
0.0011622116101
0.00245504541699
-0.00133745501616
-6.17447987822e-05
-1.22021214571e-06
-2.37426386147e-08
-1.24967172217e-09
-1.98374845292e-10
-4.27826500837e-11
-8.70321289828e-12
-1.48419723873e-12
-1.54558161607e-13
-5.91489761423e-15
-1.03073668582e-05
-2.24718305083e-05
-5.29740595375e-05
-0.000127246805919
-0.000303167181742
-0.000737781531631
-0.00155645315988
0.000635496045145
0.00367740198057
-0.00166203607293
-9.58396468885e-05
-1.96496043891e-06
-3.62738200012e-08
-1.45407452364e-09
-2.05268303126e-10
-4.43117842652e-11
-9.4004447436e-12
-1.67295341688e-12
-1.75256292509e-13
-6.78734511319e-15
-1.26382759732e-05
-2.59643648548e-05
-5.719916214e-05
-0.000128669722446
-0.000291950379917
-0.000685588012233
-0.00135773097922
8.29071094894e-05
0.00462290084907
-0.00194514256168
-0.000138120906132
-3.52835986732e-06
-5.95828119727e-08
-1.76510694415e-09
-2.11752657925e-10
-4.49792159886e-11
-9.90278930864e-12
-1.83516781332e-12
-1.92891628656e-13
-7.56631276241e-15
-1.5418044209e-05
-2.98598572614e-05
-6.17764865817e-05
-0.000131591988844
-0.000288376721772
-0.000661043969219
-0.00126543882301
-0.000377109865672
0.00530220857701
-0.00216146773047
-0.000192467484449
-5.89238552783e-06
-1.14771096195e-07
-2.4815482756e-09
-2.2711947081e-10
-4.53869518043e-11
-1.02289992762e-11
-1.96357683463e-12
-2.06367495213e-13
-8.20331111208e-15
-1.85794309932e-05
-3.40211439879e-05
-6.66258219148e-05
-0.000136091605348
-0.000291217674167
-0.000653243492661
-0.00121526505728
-0.000666416217394
0.00570763629048
-0.00230359045984
-0.000255284577362
-9.40671377749e-06
-2.26166963056e-07
-4.14991352546e-09
-2.6531693229e-10
-4.65762012895e-11
-1.04660525753e-11
-2.05948450206e-12
-2.15349318482e-13
-8.67257003021e-15
-2.20411758792e-05
-3.83992591852e-05
-7.19797333854e-05
-0.000142794488577
-0.000300537515908
-0.000657956785806
-0.00119178220312
-0.000744211012852
0.00585774413067
-0.00237515918531
-0.00031434768099
-1.43859471887e-05
-4.20323989723e-07
-7.81145469999e-09
-3.45241953063e-10
-4.97655430886e-11
-1.07531381715e-11
-2.13378762881e-12
-2.2035861237e-13
-8.97404017633e-15
-2.58116263266e-05
-4.31977227786e-05
-7.85103847257e-05
-0.000152874916754
-0.00031745159337
-0.000676181638387
-0.00121261710467
-0.00052305565174
0.00574215646197
-0.0023867717809
-0.000364705582817
-2.07676960917e-05
-7.24599862752e-07
-1.52428344698e-08
-4.9375026953e-10
-5.61268369121e-11
-1.12499612492e-11
-2.20562771363e-12
-2.22751811296e-13
-9.13706807297e-15
-3.01766475697e-05
-4.90900648115e-05
-8.7553055455e-05
-0.000168613386436
-0.000346433255372
-0.000724004063579
-0.00137366050238
0.000304998337655
0.00529560238545
-0.00232154738751
-0.000410019274501
-2.85590374386e-05
-1.17570263753e-06
-2.91849162763e-08
-7.58564608498e-10
-6.69294961913e-11
-1.21146839082e-11
-2.29926093611e-12
-2.24502934686e-13
-9.21890368787e-15
-3.59499027295e-05
-5.75089222087e-05
-0.000101663630472
-0.000195298213954
-0.000401831002442
-0.000855627211907
-0.00194506930439
0.00260857482805
0.00430771673913
-0.0022470245586
-0.000443440925204
-3.74747649178e-05
-1.80859086991e-06
-5.33084789138e-08
-1.23753393054e-09
-8.41461222722e-11
-1.35081219978e-11
-2.44053400953e-12
-2.27767301963e-13
-9.29201728733e-15
-4.44369925194e-05
-7.03944981095e-05
-0.000123982758674
-0.000238775145372
-0.000496850439806
-0.00110816770881
-0.00305530441372
0.00656155820739
0.00249275108632
-0.00214547525752
-0.000461272142403
-4.63696276693e-05
-2.62381650291e-06
-9.17331610025e-08
-2.12721552646e-09
-1.1134775044e-10
-1.56120445812e-11
-2.65386598387e-12
-2.34392357096e-13
-9.42401875836e-15
-5.64090051384e-05
-8.80769044813e-05
-0.000152933260617
-0.000289772878239
-0.000590551688062
-0.00130220566055
-0.00377928980067
0.00838508455913
0.000912371405007
-0.00200287307207
-0.000461918086564
-5.42398096479e-05
-3.63053550915e-06
-1.50512577929e-07
-3.81517468652e-09
-1.55507066675e-10
-1.86639716819e-11
-2.96038156031e-12
-2.45573120142e-13
-9.66264543274e-15
-7.18624891464e-05
-0.000109530286819
-0.000184543115117
-0.000335743950345
-0.000646612019572
-0.00134727232408
-0.00386001798272
0.00866206511916
-0.000181709621379
-0.00181768175245
-0.000445528650367
-6.00244350085e-05
-4.83807324671e-06
-2.37583955164e-07
-6.95394327994e-09
-2.29646304708e-10
-2.29555165107e-11
-3.37200426172e-12
-2.61394461918e-13
-1.00204719841e-14
-9.05978415763e-05
-0.000133646932586
-0.000215555559915
-0.000369066656901
-0.000654002437362
-0.00126791323207
-0.00334059050515
0.00800415522608
-0.000856301288628
-0.00159734974739
-0.000413950715895
-6.313133317e-05
-6.06508523916e-06
-3.53289002491e-07
-1.22674727146e-08
-3.55285579022e-10
-2.87299658921e-11
-3.87670942097e-12
-2.80221723652e-13
-1.04648483232e-14
-0.000114331262474
-0.000163193491809
-0.000252136990558
-0.000409018582707
-0.000689526980432
-0.00138047408741
-0.00129669719067
0.00641690425706
-0.00122380876395
-0.00135848834632
-0.000370744062262
-6.33375568555e-05
-7.14684018324e-06
-4.97994750698e-07
-2.05601834641e-08
-5.72007017822e-10
-3.62858902439e-11
-4.43832360914e-12
-2.99181089589e-13
-1.0941553792e-14
-0.000152682627976
-0.000215769880303
-0.000333212378808
-0.000558665352315
-0.00107416141439
-0.00269679152734
0.0058582881762
0.00339320645976
-0.00152345637025
-0.00114442454005
-0.00032441281053
-6.13161854698e-05
-7.96983900273e-06
-6.72568619116e-07
-3.27371251671e-08
-9.4690524648e-10
-4.60800105693e-11
-5.00111590965e-12
-3.15145791384e-13
-1.1414361214e-14
-0.000197608043967
-0.000270185473364
-0.000402348935829
-0.000660779103702
-0.00129697360092
-0.00270110792371
0.00679932616245
0.00112675129856
-0.00156288130029
-0.000934480956795
-0.000275446248598
-5.71455707915e-05
-8.42894402412e-06
-8.47124476396e-07
-4.84500233216e-08
-1.55066457444e-09
-5.84074486866e-11
-5.47177315895e-12
-3.24661749472e-13
-1.18600847805e-14
-0.000277260994909
-0.000383405569155
-0.000600036906798
-0.0011051584846
-0.00241056208455
0.00388847749111
0.00430340840013
-0.00034567209818
-0.00142421833954
-0.000736507318983
-0.000226221497858
-5.11562574168e-05
-8.464523945e-06
-9.92302559973e-07
-6.83982859591e-08
-2.48240504443e-09
-7.46037215105e-11
-5.77104995008e-12
-3.2586958778e-13
-1.22921608552e-14
-0.000408687380312
-0.000582275996891
-0.000963793402592
-0.00182748403422
0.000146659955382
0.0051158092296
0.00157714239012
-0.00104052034527
-0.00117592453189
-0.000556535413544
-0.00017856787617
-4.3756511567e-05
-8.05560300068e-06
-1.08254810036e-06
-9.04642068191e-08
-3.80027440008e-09
-9.75547354436e-11
-5.8427742412e-12
-3.1785136579e-13
-1.26979051911e-14
-0.000747702541574
-0.00112392171955
-0.00183528762154
0.000608092677939
0.00420758754244
0.00241947839743
-0.000183135128009
-0.0011700523806
-0.000895340367007
-0.00040695106284
-0.000137437004435
-3.65589924091e-05
-7.48980093465e-06
-1.14274662615e-06
-1.1462612067e-07
-5.59649495356e-09
-1.28902026087e-10
-5.53873686629e-12
-2.94590099419e-13
-1.27448267629e-14
-1.41432356565e-27
-1.06322970266e-28
-8.63435020719e-27
-9.80417096326e-28
-4.46575024912e-26
-5.49918688924e-27
-1.83852044353e-25
-1.98369654087e-26
-6.1996134249e-25
-5.82976608528e-26
-1.83311378519e-24
-1.54655508723e-25
-4.95335690372e-24
-3.83514087439e-25
-1.24969803118e-23
-9.03088634366e-25
-2.98941702186e-23
-2.04319547726e-24
-6.86856871655e-23
-4.48809343327e-24
-1.52986420389e-22
-9.64516116259e-24
-3.3209623923e-22
-2.01638897096e-23
-7.04483242098e-22
-4.12176096235e-23
-1.46257111544e-21
-8.31079962023e-23
-2.97487921123e-21
-1.64964712484e-22
-5.93340961866e-21
-3.22509246219e-22
-1.16134578652e-20
-6.21427115225e-22
-2.23256565539e-20
-1.18110582595e-21
-4.21911103278e-20
-2.21643643978e-21
-7.84328574547e-20
-4.11300647112e-21
-1.43473706198e-19
-7.53994716148e-21
-2.58235919673e-19
-1.36344856287e-20
-4.57179077936e-19
-2.43131749065e-20
-7.9581309279e-19
-4.27375044046e-20
-1.36161349414e-18
-7.40370347992e-20
-2.28896600402e-18
-1.26496478594e-19
-3.77923283247e-18
-2.12636604112e-19
-6.12358520057e-18