/*--------------------------------*- C++ -*----------------------------------*\
  =========                 |
  \\      /  F ield         | OpenFOAM: The Open Source CFD Toolbox
   \\    /   O peration     | Website:  https://openfoam.org
    \\  /    A nd           | Version:  dev
     \\/     M anipulation  |
\*---------------------------------------------------------------------------*/
FoamFile
{
    version     2.0;
    format      ascii;
    class       volScalarField;
    location    "0.3";
    object      edc::YStar_H2;
}
// * * * * * * * * * * * * * * * * * * * * * * * * * * * * * * * * * * * * * //

dimensions      [0 0 0 0 0 0 0];

internalField   nonuniform List<scalar> 
1629
(
1.3995168042e-19
1.33498816819e-19
1.08704143941e-19
1.92590909138e-17
2.64893788518e-17
4.5887561225e-17
1.43308819684e-15
3.03846416683e-15
1.10955776101e-14
7.94188521822e-14
2.5325033354e-13
1.77616240583e-12
3.0600003848e-12
1.02024241508e-11
5.79042321943e-11
1.16652062186e-10
4.23128786064e-10
2.17147346205e-09
3.43310465145e-09
1.2636274338e-08
5.84737645432e-08
6.14644618059e-08
2.15921801499e-07
9.31345950586e-07
3.32972732884e-07
9.32219205394e-07
3.12263444941e-06
1.07323133999e-06
2.39903013445e-06
6.3674255165e-06
2.534179119e-06
4.6707181431e-06
1.01906657059e-05
4.87800187122e-06
7.72390728731e-06
1.44155479019e-05
8.4899889159e-06
1.2192772467e-05
2.08569111202e-05
1.51168364472e-05
2.09836586518e-05
3.59121944287e-05
2.83971951098e-05
3.88179504887e-05
6.62096858626e-05
5.21039923051e-05
6.88684940004e-05
0.000111622625803
8.82805937437e-05
0.000111570159188
0.000168317581656
0.000137147138982
0.000165964680704
0.000233486068956
0.000198281042319
0.000231428677721
0.000307075316476
0.00027169832832
0.000308396867821
0.000390935389748
0.000357989747344
0.00039784097267
0.000486775452747
0.000457683888308
0.000500257571884
0.000594671794719
0.000570783857917
0.000615398611313
0.000713667260801
0.000696640287303
0.000742423787494
0.000842589708851
0.000833979349901
0.000879996773169
0.000980095974092
0.000981279744393
0.00102667764418
0.00112500476112
0.00113740640572
0.00118156483829
0.00127695551576
0.00130186647677
0.00134444622765
0.00143633271742
0.00147461709402
0.0015154964303
0.00160373180447
0.00165549957334
0.00169461473486
0.00177910399483
0.00184377737739
0.0018809897853
0.00196141767757
0.00203816929791
0.00207327686603
0.00214917959404
0.00223699936312
0.00226981299515
0.00234077672705
0.00243848168191
0.00246889801717
0.00253471464682
0.00264132578575
0.00266937380974
0.00273012669173
0.00284517944784
0.00287101707124
0.00292705943496
0.00305030462352
0.00307414805333
0.0031259432064
0.00325681105917
0.00327884952915
0.00332678812454
0.00346404780755
0.00348439492365
0.00352869882104
0.00367058389795
0.0036892852351
0.00373003264931
0.0038747019333
0.00389178388507
0.00392902010156
0.00407497605052
0.00409049473953
0.00412433864545
0.00427071545937
0.00428478190816
0.00431547644279
0.00446209314664
0.00447486539914
0.00450275590667
0.00464991040063
0.0046615609937
0.00468702150467
0.00483515195566
0.00484583128662
0.00486918422979
0.00501853589255
0.00502834590162
0.00504980586606
0.00520024271436
0.00520922587018
0.00522887692601
0.00537978255176
0.00538791946545
0.00540571044223
0.0055557027227
0.0055629077225
0.00557864253552
0.00572484703373
0.00573096191014
0.00574428650667
0.00588131934561
0.00588611996409
0.00589653897622
0.00601579642044
0.00601902271509
0.00602596667822
0.00611586631856
0.00611726814998
0.00612019305269
0.0061676026406
0.00616698738079
0.00616547707701
0.00615751643951
0.00615478653381
0.00614863280093
0.00607369138327
0.00606886511957
0.00605811519557
0.00590560705165
0.00589881223244
0.00588375210298
0.00564218599547
0.00563359016443
0.00561458992116
0.00527777281654
0.00526767983418
0.0052454118575
0.0048149441389
0.00480373632623
0.00477904223987
0.00426619890327
0.00425426708371
0.00422801017541
0.00364548642832
0.00363288815956
0.00360520373299
9.9182979269e-12
2.36268943728e-10
7.57093705334e-09
1.96178442313e-07
3.31886004623e-06
8.98239118571e-06
1.49544414814e-05
2.02306365271e-05
2.52302809047e-05
3.5336929636e-05
6.45950029013e-05
0.000119651241353
0.000189419359692
0.000263630940377
0.00033995648335
0.00042170307237
0.000513427854873
0.000617214375968
0.000731580375735
0.000854327240151
0.00098415605567
0.00112005807828
0.00126140553378
0.00140864095693
0.001562903138
0.00172523744002
0.00189550160717
0.00207224040978
0.00225374228573
0.00243851251262
0.00262539182122
0.00281393268729
0.00300452603623
0.00319770303976
0.00339333566528
0.00359028561853
0.00378672325006
0.00398085506345
0.00417147978879
0.00435826759907
0.00454168224003
0.00472259994024
0.00490185082112
0.00507984041545
0.00525637508571
0.00543057869063
0.00560058488662
0.0057627885094
0.00591089628306
0.00603538272302
0.00612391576777
0.00616293773023
0.00613955550245
0.00604258408898
0.00586218523014
0.00558751318494
0.00521378649682
0.00474405325446
0.0041908842709
0.00356615196951
5.92186987185e-16
2.93759686248e-15
7.21134600709e-15
1.05430095636e-14
8.83143870144e-15
4.74874890368e-15
1.80006365785e-15
5.11171604629e-16
1.14195990763e-16
2.06357541005e-17
3.05961817396e-18
3.75937209129e-19
3.85861908063e-20
3.3332010658e-21
2.44328817757e-22
1.53546768223e-23
8.39494833735e-25
4.06479188678e-26
1.77224543633e-27
4.06148387552e-29
1.03423010685e-14
4.86985991019e-14
1.412053511e-13
2.28243741709e-13
1.79216979655e-13
8.53112930546e-14
2.81422390757e-14
6.95761716848e-15
1.36841618661e-15
2.19756046479e-16
2.92253546058e-17
3.2531054339e-18
3.05782255266e-19
2.44786126135e-20
1.68484215708e-21
1.00929114886e-22
5.35729571021e-24
2.57557045859e-25
1.11466183683e-26
2.53915762873e-28
1.95170302966e-13
4.91869152348e-13
1.65560104685e-12
2.91936189561e-12
2.12434285743e-12
9.00250404186e-13
2.62735507437e-13
5.80252481436e-14
1.03182380264e-14
1.50913129244e-15
1.84243060657e-16
1.8986834117e-17
1.66706947258e-18
1.25834548696e-19
8.25073589636e-21
4.76461889253e-22
2.47325194024e-23
1.18881206386e-24
5.17000935441e-26
1.11283314882e-27
6.5924429189e-12
5.95806358551e-12
1.81406890389e-11
3.00869927674e-11
1.99228101626e-11
7.68080519286e-12
2.04729283165e-12
4.19315169336e-13
6.96257692665e-14
9.57617367543e-15
1.10743877474e-15
1.08873365289e-16
9.18143247914e-18
6.70075186839e-19
4.27704744052e-20
2.42289360309e-21
1.24553859139e-22
6.01411621015e-24
2.68358158662e-25
6.98074802238e-27
3.75080017115e-10
1.97087701485e-10
2.88048213474e-10
3.45193862034e-10
1.92913451854e-10
6.60497537225e-11
1.59045890201e-11
2.99750029964e-12
4.61839088115e-13
5.96257762963e-14
6.54688291021e-15
6.17397077099e-16
5.03932054145e-17
3.58765475993e-18
2.24976555547e-19
1.26083330549e-20
6.46135918835e-22
3.14355390658e-23
1.44170934388e-24
4.69576176342e-26
1.95894986399e-08
1.98520100857e-08
7.91531476947e-09
4.54264860331e-09
1.89251143136e-09
5.5420273321e-10
1.19105643467e-10
2.03052334159e-11
2.88074504333e-12
3.48591500081e-13
3.64342064415e-14
3.31266535949e-15
2.63392942449e-16
1.84198728529e-17
1.14247432655e-18
6.37107506814e-20
3.26733104236e-21
1.60112236066e-22
7.4442424802e-24
2.73257432088e-25
7.28490898829e-07
2.44512707691e-06
4.37056271035e-07
8.97234522836e-08
2.06328430238e-08
4.44066427654e-09
8.06467893906e-10
1.2262496177e-10
1.60322946605e-11
1.83243413015e-12
1.84262551953e-13
1.63368040179e-14
1.27912058975e-15
8.87237941814e-17
5.48746237267e-18
3.06382152442e-19
1.57756238354e-20
7.77092542298e-22
3.60444648188e-23
1.38665462689e-24
1.67804448759e-05
0.000244463183868
2.33113902038e-05
2.67736750265e-06
2.63563974228e-07
3.10087912256e-08
4.31898628555e-09
5.88349546635e-10
7.30650245573e-11
8.15198819778e-12
8.11922890866e-13
7.18902982908e-14
5.64905373531e-15
3.94443136259e-16
2.46019333501e-17
1.38614236146e-18
7.19487260842e-20
3.55753630319e-21
1.62788979375e-22
6.23758410457e-24
3.54759731725e-05
0.000316494647888
3.22082357416e-05
3.95751341295e-06
5.04667709747e-07
7.22768967706e-08
1.16027150408e-08
1.78497579305e-09
2.4259183633e-10
2.88548365251e-11
3.01222998566e-12
2.76635885462e-13
2.23973283262e-14
1.60407737154e-15
1.0225205886e-16
5.86665583892e-18
3.0847068179e-19
1.53111954465e-20
6.87029586723e-22
2.53780598004e-23
4.53717810192e-05
0.000196635672083
3.84894318627e-05
4.45125663691e-06
7.08535653762e-07
1.24732525043e-07
2.35883229681e-08
4.2149848249e-09
6.50668418612e-10
8.55799868533e-11
9.66234654426e-12
9.43994010444e-13
8.03268943381e-14
5.99140034333e-15
3.94792732567e-16
2.32491258656e-17
1.24400119839e-18
6.2044941346e-20
2.72344641638e-21
9.53048711516e-23
4.93792765562e-05
0.000135894051989
4.51264534261e-05
6.95899215183e-06
1.3102963961e-06
2.42415561736e-07
4.82340754169e-08
9.40794785726e-09
1.60531553852e-09
2.31569474626e-10
2.83157072496e-11
2.96004603179e-12
2.66669652419e-13
2.08648523299e-14
1.43006742975e-15
8.6850088319e-17
4.74301562517e-18
2.37910294672e-19
1.02114039402e-20
3.35899268615e-22
5.32470425286e-05
0.000127138051628
0.000117622924003
1.8686372662e-05
3.46729572103e-06
6.0244623296e-07
1.12578887112e-07
2.2076679116e-08
3.96781820672e-09
6.1070520753e-10
7.96540198418e-11
8.84294921838e-12
8.41049268312e-13
6.90123661645e-14
4.92450146846e-15
3.08775942755e-16
1.7225207139e-17
8.691540306e-19
3.64949877454e-20
1.12597639938e-21
7.74727534636e-05
0.000288271519659
0.00165823327909
0.000111102576913
1.32948102071e-05
1.85563101804e-06
3.00729168702e-07
5.55750130716e-08
1.00887657757e-08
1.61479479841e-09
2.20901123834e-10
2.57542511506e-11
2.56759759775e-12
2.20003358916e-13
1.63037623441e-14
1.05398122692e-15
6.00177492049e-17
3.04557215738e-18
1.25240831789e-19
3.6300285576e-21
0.000162091554504
0.000790287626901
0.00635898677387
0.000401069414624
3.80265128824e-05
5.00530294365e-06
7.79134603433e-07
1.40393300978e-07
2.57511487111e-08
4.2559158824e-09
6.05512545301e-10
7.35608886119e-11
7.63895219322e-12
6.80303520377e-13
5.21891559389e-14
3.47120500499e-15
2.01552520872e-16
1.02850809348e-17
4.15049769651e-19
1.13544356122e-20
0.00029655025982
0.00127416675632
0.00689731078802
0.000793645123691
0.000103082974308
1.51389599423e-05
2.24157672945e-06
3.73735092189e-07
6.65667473712e-08
1.1118352316e-08
1.62666331824e-09
2.04558966341e-10
2.20337975549e-11
2.03394191207e-12
1.61248807544e-13
1.10247843282e-14
6.52746206645e-16
3.35328662798e-17
1.33247611091e-18
3.46575378354e-20
0.000422016313098
0.00137626839506
0.00384549278873
7.08146920759e-05
0.000126142379782
2.70954407288e-05
4.74202651724e-06
8.31169256678e-07
1.5273526178e-07
2.66173779061e-08
4.07914793181e-09
5.36786913929e-10
6.03669341956e-11
5.80018587412e-12
4.76598419736e-13
3.35763659225e-14
2.03206806969e-15
1.05417357838e-16
4.14595589225e-18
1.03501758909e-19
0.000522823462428
0.00134801685042
0.00271982072938
0.000745088063405
0.000168988831648
3.8330342846e-05
7.60614631752e-06
1.47277004975e-06
2.93757961237e-07
5.55418416469e-08
9.1840844344e-09
1.29171650999e-09
1.53897280784e-10
1.55474803768e-11
1.3337655211e-12
9.73648597578e-14
6.0530127834e-15
3.18700127583e-16
1.24878852695e-17
3.02526464064e-19
0.000611106359572
0.0013523729555
0.00260015988187
0.00495118174742
0.000396174402957
5.93554081832e-05
1.13679543692e-05
2.33607957333e-06
5.03572595001e-07
1.03916131854e-07
1.87515524047e-08
2.85371327918e-09
3.64131481925e-10
3.90255565835e-11
3.52079412048e-12
2.67969130131e-13
1.72103324421e-14
9.25065323468e-16
3.63742253784e-17
8.65025819693e-19
0.000703381726894
0.00142983294215
0.00283744109873
0.00702580411528
0.000824894504918
0.000106501909796
1.90408222029e-05
3.88075932066e-06
8.59075728538e-07
1.87545139747e-07
3.63674442896e-08
5.95465168941e-09
8.13204929531e-10
9.26263931624e-11
8.81478703605e-12
7.02090468317e-13
4.678590558e-14
2.58040004432e-15
1.02496446229e-16
2.41946498458e-18
0.000809562273069
0.00156212879828
0.00310142542205
0.00726680687734
0.00133193161088
0.000223662562373
4.19220584295e-05
7.94981158976e-06
1.63892432686e-06
3.5297986845e-07
7.05946406752e-08
1.2155899599e-08
1.75517216729e-09
2.11194953601e-10
2.11532374278e-11
1.76356776926e-12
1.22180720384e-13
6.93889038244e-15
2.79945032583e-16
6.62504322247e-18
0.000929218289401
0.00170684041945
0.00323030110512
0.00661628099169
0.000139736844444
0.000264166011259
6.80521938001e-05
1.45427696479e-05
3.03897254177e-06
6.56983743771e-07
1.35070838364e-07
2.42847380378e-08
3.68300701776e-09
4.65944729917e-10
4.89847741838e-11
4.27112426306e-12
3.07896975224e-13
1.80491606814e-14
7.42873712913e-16
1.77808479543e-17
0.00105459671784
0.00182582829956
0.00318484884903
0.00533995729598
0.00110344678194
0.000334424355338
9.12147625836e-05
2.17000832369e-05
4.88798963895e-06
1.11411270319e-06
2.42178116086e-07
4.61707441787e-08
7.41176536223e-09
9.89296001876e-10
1.09343015311e-10
9.98325441059e-12
7.5006286957e-13
4.5498692399e-14
1.91823431811e-15
4.6807367037e-17
0.0011807917897
0.00192071439843
0.00309974373428
0.00462108118755
0.00469256469033
0.000616233888112
0.000128581418327
3.07895581839e-05
7.31598568574e-06
1.76004267533e-06
4.0702219828e-07
8.29575054574e-08
1.42006975912e-08
2.01079323822e-09
2.3455416729e-10
2.24909277074e-11
1.76594606425e-12
1.11184402175e-13
4.82154384857e-15
1.20833086302e-16
0.00130766011052
0.00200919382692
0.00306234620473
0.00442109408676
0.00620100474968
0.00106608105302
0.000217379629093
5.04032530136e-05
1.17133477912e-05
2.80819021275e-06
6.69087244238e-07
1.43772962416e-07
2.61307122926e-08
3.92460230582e-09
4.83872866827e-10
4.88344070652e-11
4.01755856665e-12
2.63337156648e-13
1.17933454055e-14
3.05617007265e-16
0.00143588316806
0.00209893312354
0.00306188639786
0.00432266167615
0.00622650813307
4.5407792017e-05
0.000239050065309
7.15370043277e-05
1.80260869227e-05
4.39730464053e-06
1.0724586353e-06
2.41104505441e-07
4.63401968301e-08
7.37290814292e-09
9.61178733101e-10
1.02247056762e-10
8.83244973588e-12
6.04376422524e-13
2.80557758507e-14
7.5639926506e-16
0.00156645190677
0.00219361230827
0.00309129003736
0.00429676846664
0.00633300082605
0.000273258556111
0.000262107198702
8.86917290492e-05
2.45594494143e-05
6.32776568293e-06
1.61419314352e-06
3.83510286557e-07
7.8406701951e-08
1.32677762839e-08
1.83439532077e-09
2.06215916574e-10
1.87527472672e-11
1.34334827129e-12
6.48656674819e-14
1.82935918383e-15
0.00170155394422
0.00229755502725
0.00314826943011
0.00431632752067
0.0062955721966
0.00134189855387
0.000350315093793
0.000108302178822
3.12208820512e-05
8.48296547168e-06
2.28123713948e-06
5.76415425599e-07
1.26069798585e-07
2.28036992246e-08
3.3574845352e-09
4.00212586115e-10
3.84266252068e-11
2.89008019486e-12
1.45642252925e-13
4.31751897348e-15
0.00184370314118
0.00241388312173
0.00322960372517
0.0043618389717
0.0061718612153
0.00374019668253
0.000626296311273
0.000147832588757
4.07847360415e-05
1.13003807887e-05
3.1464875252e-06
8.37084991826e-07
1.95061166126e-07
3.76941875629e-08
5.91612877237e-09
7.48996753936e-10
7.60797252494e-11
6.02092792801e-12
3.1752379078e-13
9.9347938183e-15
0.00199458885779
0.00254310071919
0.00332942313022
0.00441951858924
0.00605032050015
0.00565044282354
0.00107802816244
0.000239492994538
6.10835563267e-05
1.6200030144e-05
4.4507972774e-06
1.21091858908e-06
2.96042592917e-07
6.06598607195e-08
1.01143550046e-08
1.35837194132e-09
1.45976252611e-10
1.21673099875e-11
6.72670310557e-13
2.22824966732e-14
0.00215346327988
0.00268006778001
0.00343039368166
0.00444530635984
0.0058192367493
0.00583986299049
5.52686917522e-05
0.000258265298826
8.22116473294e-05
2.29262750982e-05
6.30696818434e-06
1.73959169046e-06
4.41993222584e-07
9.5439722965e-08
1.68456736653e-08
2.39544029423e-09
2.72142277682e-10
2.38934448197e-11
1.38613442336e-12
4.87184484135e-14
0.00231767618777
0.00281811353794
0.0035209691438
0.00443819190891
0.00557259318737
0.00586121809137
0.000240694349071
0.00027462035712
9.9493048498e-05
2.99334798109e-05
8.52212497159e-06
2.41706716323e-06
6.40668007202e-07
1.45915137458e-07
2.72682054327e-08
4.10559185718e-09
4.93143848327e-10
4.56224458137e-11
2.77956452402e-12
1.03827175702e-13
0.0024850384944
0.00295507229246
0.00360488455098
0.00442904189546
0.00540728080637
0.00599074983675
0.000822242856161
0.00032408387024
0.000117880739955
3.73785875972e-05
1.10684526753e-05
3.24455108917e-06
8.98886238916e-07
2.16195991664e-07
4.28201633558e-08
6.83201298726e-09
8.68212988717e-10
8.46916854926e-11
5.42345414003e-12
2.15606569456e-13
0.0026544706236
0.00309237260132
0.00369149919692
0.00444285787791
0.00534247284574
0.00615990887765
0.00175982843431
0.000414030311713
0.000146105786771
4.74176301262e-05
1.43660465905e-05
4.29827509585e-06
1.23440218577e-06
3.12232491773e-07
6.54291706476e-08
1.10556846657e-08
1.48630116087e-09
1.52910539929e-10
1.02978166085e-11
4.36162566806e-13
0.00282570604853
0.00323245297239
0.00378808158552
0.00448922660504
0.00535673535462
0.00633505435199
0.00293587527645
1.48907520906e-05
0.000146306911899
5.67964612924e-05
1.82707343992e-05
5.60496047614e-06
1.6618335398e-06
4.40504824709e-07
9.74724900377e-08
1.74245731457e-08
2.4768780405e-09
2.68714756067e-10
1.90354063426e-11
8.59624424365e-13
0.00299926410145
0.00337773251861
0.00389822726597
0.00456624837143
0.00542165356213
0.00649312738728
0.00447373715416
3.94708238476e-05
0.000151647506255
6.49676818392e-05
2.22798068519e-05
7.07478224133e-06
2.17230220242e-06
6.03869130816e-07
1.41177639348e-07
2.67140069571e-08
4.01663380248e-09
4.59647125934e-10
3.42609421719e-11
1.65081759326e-12
0.00317619461344
0.00352980273755
0.00402107628862
0.00466095566339
0.00549037960584
0.00652967516137
0.00505334498474
0.000133846309611
0.000167474569795
7.31807995515e-05
2.62986736356e-05
8.64656441874e-06
2.75188705053e-06
8.02562797038e-07
1.98421969914e-07
3.97874719285e-08
6.33390061109e-09
7.65102177195e-10
6.0041175228e-11
3.0893835025e-12
0.00335709478701
0.00368838778066
0.00415247767552
0.00476028137993
0.00554094091692
0.00647284711246
0.00521543962698
0.000352478110909
0.000192267226035
8.3010288613e-05
3.07090670366e-05
1.03893816139e-05
3.41055993938e-06
1.03987756482e-06
2.71491817307e-07
5.76778669373e-08
9.72399494804e-09
1.24029696061e-09
1.02514612822e-10
5.63733478309e-12
0.00354142978189
0.00385148464226
0.00428756099982
0.0048570608293
0.00557501740834
0.0063838016766
0.00528126657901
0.000668773104917
0.000185379271483
9.31145717571e-05
3.58521731528e-05
1.2434091796e-05
4.17776510653e-06
1.32316483765e-06
3.63495424737e-07
8.16800604981e-08
1.45720845521e-08
1.96186857814e-09
1.7078301444e-10
1.00419985861e-11
0.00372750510046
0.00401615196716
0.0044221988312
0.0049487023162
0.00560002967697
0.00629824074796
0.00532684443012
0.00104951717429
1.21758045937e-05
8.92411662738e-05
4.02390347086e-05
1.46680091421e-05
5.05089643062e-06
1.65504820613e-06
4.76972442074e-07
1.13181886642e-07
2.13492832812e-08
3.03231871353e-09
2.77965787178e-10
1.74831212988e-11
0.00391311315384
0.00417968998097
0.00455406626651
0.0050359578859
0.00562392851157
0.00623289091497
0.00539883481279
0.00154273703138
1.71330694185e-05
8.63423198014e-05
4.3783917835e-05
1.6902511495e-05
5.98863117151e-06
2.02790913919e-06
6.12190293938e-07
1.53302056275e-07
3.05682859636e-08
4.58008481047e-09
4.4215150036e-10
2.97639096047e-11
0.00409646453327
0.00434077563257
0.00468348909072
0.00512289530241
0.00565616152955
0.00619388483474
0.0054975200877
0.00215804896585
4.06531166208e-05
8.7996328037e-05
4.70794995435e-05
1.91050817132e-05
6.96469276843e-06
2.43286740388e-06
7.68056776553e-07
2.02845840593e-07
4.2756157717e-08
6.75879382049e-09
6.87325576828e-10
4.95558157164e-11
0.00427667438437
0.00449954467566
0.00481257512628
0.00521454138899
0.00570383548726
0.00618637470541
0.00561633360767
0.00283531973228
8.8498268662e-05
9.34420423957e-05
5.07192221931e-05
2.13776310465e-05
7.99206782427e-06
2.86872126225e-06
9.44223007274e-07
2.62621143085e-07
5.84854031304e-08
9.75240176505e-09
1.0448462977e-09
8.07411556208e-11
0.00445383966594
0.00465712527737
0.00494390804222
0.00531468147801
0.00576928058473
0.00620578369689
0.00573535052588
0.00346315146235
0.000160348032122
8.69377770622e-05
5.38906949637e-05
2.37610181489e-05
9.09880542999e-06
3.3400536103e-06
1.14130699643e-06
3.33545909283e-07
7.83967771315e-08
1.37820581912e-08
1.55546814899e-09
1.28890965823e-10
0.0046287325021
0.0048148559207
0.00507917893429
0.00542402511981
0.00584833010893
0.00623711391607
0.0058190869702
0.00388777723246
0.000241723294438
2.74660225705e-05
5.1538650805e-05
2.57632337424e-05
1.02551826947e-05
3.84511109367e-06
1.35866241647e-06
4.16213254014e-07
1.03125534638e-07
1.91006422591e-08
2.2706060114e-09
2.01828841599e-10
0.00480227542355
0.00497355472859
0.00521843035148
0.00554007714583
0.00593259326906
0.00626358068489
0.005847489155
0.00407811696333
0.00032886382397
6.63605113563e-06
4.68975535687e-05
2.71614522614e-05
1.13978552616e-05
4.37157085412e-06
1.59261691307e-06
5.10326771693e-07
1.33158601648e-07
2.59708769043e-08
3.2516729339e-09
3.1017802435e-10
0.00497509275001
0.00513321873282
0.00536025871287
0.0056585565759
0.00601329058438
0.00627363691242
0.00582368532028
0.00414119081503
0.000419268668183
8.93245872231e-06
4.27128223308e-05
2.80359106573e-05
1.24869659772e-05
4.90680896703e-06
1.83814957831e-06
6.14793033615e-07
1.68773478461e-07
3.46457658513e-08
4.56869324469e-09
4.6791146031e-10
0.00514722506654
0.00529299564376
0.00550224281933
0.00577447618649
0.00608284481044
0.00626074550577
0.00575865394118
0.00413216460305
0.000506022980142
1.47836822452e-05
3.91053537537e-05
2.84910088421e-05
1.35146558526e-05
5.44654610773e-06
2.09163500275e-06
7.28319636914e-07
2.10105132691e-07
4.53680498539e-08
6.30055991069e-09
6.93075938933e-10
0.005318061312
0.0054513386283
0.00564138540304
0.00588295494893
0.00613592689101
0.00622357677124
0.00565785773574
0.00407706519029
0.000579815489484
2.2634955458e-05
3.46707286375e-05
2.84702937328e-05
1.44725977285e-05
5.99254263396e-06
2.35135925797e-06
8.49691568683e-07
2.57195179987e-07
5.83729929505e-08
8.53612866266e-09
1.00867834838e-09
0.00548629913355
0.00560601467641
0.00577410460875
0.00597909564127
0.00616836303359
0.00616161929623
0.00552799044663
0.00398703301229
0.000631538783824
3.11465680066e-05
2.58733348001e-05
2.75056868387e-05
1.52949200841e-05
6.54294700542e-06
2.61601045214e-06
9.77525625422e-07
3.09922917134e-07
7.38690979018e-08
1.13722023192e-08
1.44330303178e-09
0.00564961401752
0.00575371750233
0.00589581838069
0.00605756335223
0.00617617115793
0.00607355498685
0.00537162386901
0.00386390288542
0.000657859726327
3.94409663842e-05
1.29442308797e-05
2.50598455867e-05
1.58392415305e-05
7.08425786876e-06
2.88319421685e-06
1.10997944003e-06
3.67893568766e-07
9.20000786386e-08
1.49067045424e-08
2.03094770515e-09
0.00580391348924
0.00588939020338
0.006000496462
0.0061123226154
0.00615505705455
0.00595683529377
0.0051887851752
0.00370458643237
0.000657958513404
4.66757853718e-05
5.32448131827e-06
2.17500125136e-05
1.6005788706e-05
7.59751270714e-06
3.15012189669e-06
1.24495244103e-06
4.30425910033e-07
1.12816615679e-07
1.92300756872e-08
2.80998125382e-09
0.00594250048107
0.0060056736226
0.00608046830654
0.00613647906405
0.00609984696553
0.00580697424827
0.0049762142022
0.0034943387822
0.000633014373864
5.10645429769e-05
3.14927165105e-06
1.85056149903e-05
1.57848158919e-05
8.06505674517e-06
3.41506429359e-06
1.38056940507e-06
4.96633947563e-07
1.36267412488e-07
2.44174206134e-08
3.82135400496e-09
0.00605567906589
0.00609274979608
0.00612627458971
0.00612158486372
0.00600267311786
0.00561422397298
0.00472102548403
0.00319030764868
0.000586348588658
5.28697282116e-05
2.80368407184e-06
1.57140568824e-05
1.52164769025e-05
8.46810170292e-06
3.67746330361e-06
1.51541999643e-06
5.65476420016e-07
1.621858835e-07
3.05192241895e-08
5.10613378752e-09
0.00613124578035
0.00613884128089
0.00612693853987
0.00605750930586
0.00585326344315
0.00536698420128
0.00441685902239
0.00274208275337
0.000521569766831
5.23022177025e-05
2.97186928657e-06
1.33884403242e-05
1.4365914065e-05
8.78426278828e-06
3.93805296416e-06
1.6487814041e-06
6.35799478521e-07
1.90268702426e-07
3.75493909435e-08
6.70245244028e-09
0.00615606294976
0.00613176802309
0.00607166935307
0.00593521052829
0.00564508014811
0.00506622172506
0.0040879200695
0.00225861582617
0.000447608647379
4.96004152386e-05
3.24510693271e-06
1.13389263397e-05
1.33002416356e-05
8.98522026467e-06
4.19835514452e-06
1.78075255315e-06
7.06372225353e-07
2.20049688861e-07
4.54734783533e-08
8.64322544892e-09
0.00611789716756
0.00606076814775
0.00595194089084
0.00574954312904
0.00537894918559
0.00472630546696
0.00376086226549
0.00179622651178
0.000370960416613
4.51311297622e-05
3.45623190519e-06
9.44512350538e-06
1.20818462171e-05
9.03439877238e-06
4.45599464938e-06
1.91140034572e-06
7.75704212788e-07
2.50823329006e-07
5.41916288416e-08
1.09548971661e-08
0.00600637500322
0.00591729498387
0.00576202399492
0.00549905505537
0.005060490733
0.00436449028847
0.00343293040873
0.00137764468186
0.000296666619465
3.94672770802e-05
3.5371323681e-06
7.70202074211e-06
1.07893572231e-05
8.89929441864e-06
4.70096776854e-06
2.04020090575e-06
8.41961308275e-07
2.81589730376e-07
6.35305389971e-08
1.36603897361e-08
0.00581240749572
0.00569388922662
0.00549679900264
0.00518177213471
0.00469186874336
0.00398427392066
0.00301927433611
0.00101815161787
0.000228421528459
3.31951969185e-05
3.46753741692e-06
6.21033663648e-06
9.50807012745e-06
8.57252126924e-06
4.91513141437e-06
2.16628676142e-06
9.0317157022e-07
3.11104845428e-07
7.32620144235e-08
1.67872757702e-08
0.00552536954939
0.00538020453317
0.00514577821361
0.00478583992888
0.00425778484665
0.00355972396417
0.00223637417372
0.000724724473232
0.000169358060339
2.69243096929e-05
3.26083510103e-06
5.04123622008e-06
8.3153375063e-06
8.07653305271e-06
5.07248622126e-06
2.28798211201e-06
9.5735944705e-07
3.37974744098e-07
8.31436495925e-08
2.03810275279e-08
0.0051415059797
0.00497500157083
0.0047123608859
0.00432398393711
0.00378912662113
0.00309697200796
0.00151230339807
0.000495072014764
0.000120819353737
2.11151433503e-05
2.95131251039e-06
4.17934411477e-06
7.25218217189e-06
7.458374911e-06
5.14507641512e-06
2.40297761092e-06
1.00293541638e-06
3.60833147804e-07
9.29744035917e-08
2.45224767015e-08
0.00466437176756
0.0044828384364
0.0042024881106
0.00380389488512
0.00328186730858
0.00225585068972
0.000964853586013
0.000324212111444
8.29580700591e-05
1.60517029702e-05
2.58118022911e-06
3.55136096859e-06
6.31557340496e-06
6.77097944362e-06
5.12139310459e-06
2.51014558069e-06
1.03944576483e-06
3.78642773768e-07
1.02670968905e-07
2.93467824835e-08
0.0041067156834
0.0039171529134
0.00363139974943
0.00323677778683
0.00257404195101
0.00137112808571
0.000584060033765
0.00020276958593
5.48629756543e-05
1.18345632928e-05
2.18993839398e-06
3.06724837601e-06
5.48677029962e-06
6.07667403389e-06
4.99019812396e-06
2.60806927424e-06
1.06786916157e-06
3.90807026625e-07
1.12290108981e-07
3.51268254776e-08
0.0034781110103
0.00328167600505
0.00298407573169
0.00242391386107
0.00150691529043
0.000779912680318
0.000342037360415
0.00012411820349
3.6195598834e-05
8.7877366227e-06
1.87915688101e-06
2.59378859906e-06
4.73008927884e-06
5.41492215071e-06
4.75733806351e-06
2.69161897005e-06
1.0851688669e-06
3.96297692483e-07
1.2185390252e-07
4.23097450491e-08
4.17238871441e-26
8.05895747134e-26
5.33919125231e-26
9.16270528508e-26
1.48330976496e-25
1.78362754388e-25
5.57472484036e-25
4.86795365149e-25
2.00473918784e-24
1.28737424387e-24
6.69662571317e-24
3.41261464895e-24
2.11308618201e-23
9.04126488751e-24
6.39246118383e-23
2.39186721737e-23
1.87700694663e-22
6.33106634582e-23
5.40865663083e-22
1.6830288716e-22
1.54249883685e-21
4.50927346421e-22
4.37554335348e-21
1.21973698146e-21
1.2364928668e-20
3.32924449535e-21
3.47787819936e-20
9.14810381676e-21
9.71676916131e-20
2.52239125118e-20
2.69142561656e-19
6.9569103989e-20
7.38211740833e-19
1.91460091974e-19
2.00373855389e-18
5.24854608227e-19
5.37828804777e-18
1.431038774e-18
1.42552039404e-17
3.87529194101e-18
3.72426915596e-17
1.03935826817e-17
9.57109478924e-17
2.75158898565e-17
2.41423277272e-16
7.17086169529e-17
5.96467024471e-16
1.83507472589e-16
1.44088972468e-15
4.60193717536e-16
3.39864780003e-15
1.12962376195e-15
7.82207058108e-15
2.70874365461e-15
1.75549800128e-14
6.33671048665e-15
3.8393787986e-14
1.44466966822e-14
8.17916411278e-14
3.20744424073e-14
1.69707006717e-13
6.93234452378e-14
3.42982562512e-13
1.45848591855e-13
6.75320047305e-13
2.98730352616e-13
1.29612500247e-12
5.95935457523e-13
2.42729741786e-12
1.15884427561e-12
4.44024124795e-12
2.19879834592e-12
7.93925608754e-12
4.07382149386e-12
1.38799191899e-11
7.37356686259e-12
2.37398272499e-11
1.30452354475e-11
3.9763879263e-11
2.25783473058e-11
6.52919640518e-11
3.82641498428e-11
1.05157087907e-10
6.35357753647e-11
1.6615563659e-10
1.03393196194e-10
2.5762685442e-10
1.64927019268e-10
3.92141264561e-10
2.57939358985e-10
5.86160611814e-10
3.95586291252e-10
8.60426869955e-10
5.94875085735e-10
1.23990706151e-09
8.76851262863e-10
1.75323696137e-09
1.266387548e-09
2.43178333337e-09
1.79169802837e-09
3.30846896597e-09
2.48372928412e-09
4.41722770016e-09
3.37614906142e-09
5.79355192399e-09
4.50637844526e-09
7.47881884496e-09
5.92047382098e-09
9.52734505379e-09
7.67991903676e-09
1.20112375911e-08
9.86284268876e-09
1.50396402619e-08
1.2586167113e-08
1.87608288629e-08
1.59976574922e-08
2.34178822753e-08
2.02913598845e-08
3.04177250606e-08
2.74973592566e-08
)
;

boundaryField
{
    inletfuel
    {
        type            calculated;
        value           uniform 1;
    }
    inletair
    {
        type            calculated;
        value           uniform 0;
    }
    outlet
    {
        type            calculated;
        value           nonuniform List<scalar> 
26
(
6.90677798537e-05
6.88822381003e-05
6.84760220728e-05
6.79069042554e-05
6.66304657873e-05
6.38517482729e-05
5.98570189785e-05
5.4637105142e-05
4.83086824597e-05
4.11339312892e-05
3.35106825193e-05
2.59273085905e-05
1.88865922917e-05
1.28167596981e-05
7.99327562649e-06
4.49613688827e-06
2.22144805681e-06