/*--------------------------------*- C++ -*----------------------------------*\
  =========                 |
  \\      /  F ield         | OpenFOAM: The Open Source CFD Toolbox
   \\    /   O peration     | Website:  https://openfoam.org
    \\  /    A nd           | Version:  dev
     \\/     M anipulation  |
\*---------------------------------------------------------------------------*/
FoamFile
{
    version     2.0;
    format      ascii;
    class       volScalarField;
    location    "0.3";
    object      edc::R_H2O;
}
// * * * * * * * * * * * * * * * * * * * * * * * * * * * * * * * * * * * * * //

dimensions      [1 -3 -1 0 0 0 0];

internalField   nonuniform List<scalar> 
1629
(
1.62592115778e-18
1.93845022176e-18
2.66488196378e-18
2.88232719121e-16
4.99199394789e-16
1.37175237655e-15
2.557633598e-14
7.17787772215e-14
4.15700294752e-13
1.59107186607e-12
7.05435270653e-12
6.99351473945e-11
6.26872433342e-11
2.67515999829e-10
1.6489094268e-09
2.76106961623e-09
1.25101000961e-08
1.56644059529e-07
1.70193799704e-07
2.08791738206e-06
2.90746824461e-05
1.42220278382e-05
0.000160929275937
0.00236655072596
4.69983023094e-05
0.000295802106462
0.00237096095313
0.000129149779056
0.000475451938979
0.00219747989743
0.000280694879754
0.000690794387509
0.0020751178248
0.00049596670525
0.000932650741261
0.00218721156662
0.000772900064421
0.00125395575427
0.00272520477502
0.00109165072791
0.00159364977425
0.00309203899262
0.00142820418029
0.00194074014592
0.00341613842273
0.00174384953632
0.00223993889217
0.00360522766795
0.00199735621362
0.00245549903235
0.00366526410021
0.00215633724294
0.0025583518009
0.00355470075721
0.00221616291117
0.00255015274831
0.00334365839253
0.00220574056217
0.00248198686007
0.00313919591039
0.00217372888393
0.00242416028206
0.00302231914086
0.00214842891801
0.00238934603086
0.00296181397878
0.00211780520731
0.00234295368726
0.00286328336049
0.00205995430737
0.00225797635609
0.00270252452267
0.00197135490211
0.00213954216942
0.00251018395564
0.00186883419455
0.00201288877815
0.00232861036024
0.00177414470096
0.00190348163872
0.0021844349567
0.00170141819793
0.00181916447429
0.00207428266624
0.00164533892753
0.00175066788368
0.00197748667994
0.00159218168896
0.00168374580701
0.00187878745813
0.00152875436072
0.00160658324662
0.00177066571864
0.00145280806818
0.00151875364857
0.00165873650357
0.00137517230021
0.00143314343413
0.00155939076151
0.00131067469921
0.00136506077679
0.00148760717107
0.00127533311663
0.00133101959375
0.00145696893454
0.00128629219157
0.00134518915087
0.00147971329347
0.00135762505025
0.00142197446622
0.00156934833079
0.00150129620699
0.00157238655107
0.0017351857217
0.00172203627507
0.00180079483816
0.00198043195162
0.00201915324821
0.00210604853117
0.00230370059043
0.00239871340456
0.002495598857
0.00271708171821
0.00289872187218
0.00301149913631
0.00327030854323
0.00360988391429
0.00374806071714
0.00406621305834
0.00468377110845
0.00486065784914
0.0052683013747
0.00634609412675
0.00657919452632
0.00711574329538
0.00891925070606
0.00923073791827
0.00994589170751
0.0128324807892
0.0132481456856
0.0141989653618
0.0185717701675
0.0191155319986
0.0203534010105
0.0264922979935
0.027173523159
0.0287147895322
0.0364138025043
0.037206956846
0.0389881570881
0.0470605440079
0.0478885844848
0.0497317904513
0.0557895724044
0.0565338289002
0.0581742381867
0.0593508740871
0.0599023260438
0.0611047355787
0.0558059101469
0.0561279355336
0.0568217730475
0.0461202013543
0.046261666387
0.0465630800828
0.0336366660124
0.0336879356289
0.0337980126178
0.0220115588784
0.0220560909529
0.0221588165161
0.0136768476548
0.013775674824
0.0140052332544
0.00958485434127
0.00978850786216
0.0102570597335
0.00919486002496
0.00954425151312
0.0103432204819
0.01133625608
0.0119040852066
0.0131984580865
0.015615236542
0.0165451562318
0.0186561231325
0.0273061043356
0.0289419333773
0.032631518323
3.88570613485e-10
7.3296599702e-09
1.68414720442e-06
0.000240521454241
0.0275607731303
0.0150726988534
0.00790346456114
0.00497524370051
0.00500097620253
0.0071553886055
0.00702562460582
0.00698133243461
0.00651958273787
0.00605971972219
0.00537305081773
0.00469001909063
0.00421586755175
0.00401481819844
0.00389936171705
0.00367781952427
0.00336941433844
0.00305191833264
0.00278584282989
0.0025890724791
0.00243557660487
0.00229261281264
0.00214524618609
0.00199587619635
0.00185650732977
0.00174398372179
0.001672226376
0.00164968302535
0.00168673193217
0.00179524181518
0.00198350966876
0.00225233241869
0.00260252240641
0.00305345263665
0.00366610707368
0.0045547056789
0.00589402619047
0.00793649478726
0.0110338180362
0.0156348745021
0.0222060910377
0.0309964027093
0.0415910063604
0.0523860085397
0.0604988071503
0.0627801509712
0.0577721138622
0.0469706478524
0.0339529395194
0.0223207402531
0.0143629774194
0.0109730225105
0.0115513984631
0.015147178867
0.0218129121741
0.0380928686703
1.88513599443e-18
6.9100716795e-18
7.89121366696e-18
4.45461931953e-18
1.15779379995e-18
1.59899882218e-19
1.33423032038e-20
7.32263249601e-22
2.96421941436e-23
1.16294179377e-24
7.13579079945e-26
6.27027030866e-27
5.36947837078e-28
3.99504240095e-29
2.56063299361e-30
1.43517205377e-31
7.17721905715e-33
3.29974846192e-34
1.44040224393e-35
1.18538761595e-36
4.34157438732e-15
4.58577906032e-15
3.35604899559e-15
1.44366118604e-15
2.76298587264e-16
2.8821167957e-17
1.89236599565e-18
8.35563000217e-20
2.6391951508e-21
6.32557899341e-23
1.52577697899e-24
6.84385577601e-26
4.83346156092e-27
3.38046315585e-28
2.11285277479e-29
1.18641795818e-30
6.11450448625e-32
2.97350831025e-33
1.38128541597e-34
1.12206554987e-35
3.51777463751e-12
6.69079298315e-13
4.2547990796e-13
1.38498112688e-13
2.08770287522e-14
1.85759182318e-15
1.07511443002e-16
4.1989297765e-18
1.15903706051e-19
2.28643150806e-21
3.51527542292e-23
6.70486563849e-25
3.0438368375e-26
1.96793226598e-27
1.22260451426e-28
6.98787252746e-30
3.72489599277e-31
1.90441604086e-32
9.27210132241e-34
7.28769000336e-35
8.7947920128e-10
3.90113686223e-10
4.24959158573e-11
7.4214243926e-12
1.04138433208e-12
9.34743029498e-14
5.13657937428e-15
1.86347699042e-16
4.67361500531e-18
8.24940889105e-20
1.0605913761e-21
1.16237399897e-23
2.28391627977e-25
1.17039853137e-26
7.20195540765e-28
4.19783055639e-29
2.29751441892e-30
1.20985392952e-31
6.18985210798e-33
5.47896419345e-34
3.16108637616e-08
1.93778931994e-08
2.19361212873e-09
3.23913913255e-10
5.5109135106e-11
5.09415383388e-12
2.58403564776e-13
8.50816626952e-15
1.88717388901e-16
2.96910102294e-18
3.40660350179e-20
2.99359411024e-22
2.78264981467e-24
7.645541072e-26
4.4075426992e-27
2.62297795603e-28
1.47056370798e-29
7.92268495139e-31
4.22798163879e-32
4.92581791331e-33
7.50482140395e-06
1.16494364804e-05
3.58887320688e-07
2.85085606657e-08
3.79313060291e-09
2.98915078545e-10
1.31130859449e-11
3.56283414992e-13
6.82900460764e-15
9.47168814921e-17
9.83704935332e-19
7.80198051075e-21
5.21087399939e-23
6.19278947948e-25
2.77053901846e-26
1.66145911978e-27
9.48823231329e-29
5.17610668971e-30
2.8299982326e-31
3.56326187034e-32
0.00229906348278
0.0255825733006
0.000453697661393
1.32828123658e-05
3.70704286772e-07
1.63862325792e-08
5.32593831065e-10
1.20398213572e-11
1.93068849256e-13
2.40870008788e-15
2.31431193072e-17
1.73544424046e-19
1.04365241342e-21
7.05739449976e-24
1.84757699452e-25
1.06499627491e-26
6.12833938969e-28
3.34072624561e-29
1.83317783956e-30
2.29631467986e-31
0.646368411492
37.8558412499
0.212748256148
0.00382991767698
3.55914816329e-05
5.40230902563e-07
1.28139669081e-08
2.40139048904e-10
3.54900975365e-12
4.21113734425e-14
3.98580052854e-16
2.99387009339e-18
1.78807411193e-20
9.75015587173e-23
1.37459062406e-24
6.91659491434e-26
3.93699532678e-27
2.11506632742e-28
1.14542219309e-29
1.34695217983e-30
0.153884569485
2.73688368399
0.0545635660803
0.0016219020169
5.25484212871e-05
1.34346292359e-06
5.27556252913e-08
1.53366833507e-09
2.99841747648e-11
4.21055793335e-13
4.56915712637e-15
3.76687505779e-17
2.40983727091e-19
1.28527909197e-21
1.15634997388e-23
4.53720255152e-25
2.49489962718e-26
1.30364248047e-27
6.88427183069e-29
7.31387798898e-30
0.0387737498026
0.31799841923
0.0124248450428
0.000533972680814
4.54236986796e-05
2.00920547378e-06
1.20546259684e-07
5.49852937081e-09
1.52873519174e-10
2.82930447838e-12
3.7094188357e-14
3.55100369265e-16
2.55565744816e-18
1.45417254161e-20
1.03585765107e-22
2.97856747322e-24
1.53951941684e-25
7.74509048329e-27
3.96034236221e-28
3.72790121457e-29
0.0142641583897
0.0522058435329
0.0299340513559
0.000613920252238
5.82673437711e-05
3.58288678496e-06
2.64953728118e-07
1.62205336667e-08
6.25392408232e-10
1.50170639635e-11
2.38968722331e-13
2.69532212295e-15
2.22087854217e-17
1.39573509579e-19
9.10826517413e-22
1.92280862398e-23
9.09778814247e-25
4.37989885863e-26
2.1632202078e-27
1.79074857094e-28
0.0212667627676
0.720505415577
18.4483950432
0.0842867267426
0.00231733082546
4.36157999587e-05
1.34491510636e-06
6.79667182095e-08
2.75097599256e-09
7.14442941798e-11
1.35051880319e-12
1.77068315423e-14
1.6515443462e-16
1.15609848692e-18
7.4630123041e-21
1.19606364172e-22
5.05227475448e-24
2.32288906988e-25
1.11020278108e-26
8.08106725517e-28
0.0387679345959
1.27985428606
16.0541283849
0.218926863314
0.00464278090428
0.000138090224
3.61351450288e-06
2.04043580175e-07
9.34614986421e-09
3.17891216847e-10
6.79453768026e-12
1.01456482973e-13
1.06653026832e-15
8.35008216667e-18
5.55411526687e-20
7.03460990163e-22
2.58496651906e-23
1.13682560957e-24
5.28778183797e-26
3.4023520808e-27
0.0283686194112
0.442146181411
13.7906001398
0.0949088723337
0.00228189995505
0.000138574914902
5.60702190018e-06
4.05684934213e-07
2.65838966721e-08
1.07972098605e-09
2.86086059654e-11
4.91577910645e-13
5.96034163837e-15
5.26502870339e-17
3.70709640664e-19
3.86286812708e-21
1.19695740609e-22
5.05234862452e-24
2.30821168136e-25
1.32552798486e-26
0.0237076460339
0.227517597373
16.2750396939
0.0838798772602
0.00175233211016
0.000106465706511
8.17109286679e-06
7.17475052423e-07
5.92501451663e-08
3.13327233105e-09
1.02485726566e-10
2.07976949058e-12
2.96971948402e-14
2.90916958247e-16
2.21289949729e-18
1.9802418621e-20
4.96688592866e-22
2.01376060046e-23
9.1395003719e-25
4.74332243099e-26
0.0176398746754
0.0965147332545
2.27591922393
9.81613284366
0.0512242095477
0.00158257388949
3.96357185295e-05
1.64559405007e-06
1.31664850731e-07
7.85421092917e-09
3.09170381295e-10
7.83309090704e-12
1.29192354551e-13
1.42493920186e-15
1.1880414364e-17
9.61491318826e-20
1.86211236926e-21
7.16872874598e-23
3.26689050175e-24
1.55330124352e-25
0.0144349640613
0.0728157998986
0.971313004368
9.0838894636
0.140291349655
0.00316064305411
9.75926045145e-05
3.16434965507e-06
2.55471735789e-07
1.89566527156e-08
8.97227825833e-10
2.60352411552e-11
4.98048288856e-13
6.25017885578e-15
5.77803368288e-17
4.48914354462e-19
6.50559876465e-21
2.29488504947e-22
1.05664526165e-23
4.66442883554e-25
0.0109772346075
0.040346801303
0.349062503132
8.37755336312
0.0768138357164
0.0016991500246
8.96789732364e-05
4.01191405142e-06
3.96399572065e-07
3.39535486075e-08
2.09861282436e-09
7.65669135355e-11
1.6560835572e-12
2.50391049909e-14
2.56035708987e-16
2.0202746163e-18
2.22109453637e-20
6.72081196122e-22
3.11902375757e-23
1.2933595056e-24
0.00842483568161
0.0235206550537
0.146596286377
8.24473492053
0.0546487012573
0.000806386666544
5.06977108773e-05
4.3920642091e-06
5.33396251001e-07
6.02876188474e-08
4.4539179403e-09
2.03151827177e-10
5.21139788799e-12
9.17018995831e-14
1.04054253411e-15
8.69776852823e-18
7.7497180304e-20
1.84843407981e-21
8.50721039526e-23
3.34553738228e-24
0.00709843727041
0.0178325767481
0.0932287913973
10.147456674
0.092855625542
0.0012890537334
5.51674723802e-05
5.55079901434e-06
7.43236856539e-07
9.99163849138e-08
9.07715603319e-09
4.3920089282e-10
1.52364124838e-11
3.06326636545e-13
3.91902077598e-15
3.55558921323e-17
2.81534013365e-19
4.94051472152e-21
2.17388840923e-22
8.16279544761e-24
0.00664519179302
0.0160078159159
0.0766995454754
7.2904240468
7.84299182281
0.0798943515522
0.00251885133654
7.241650991e-05
2.23629046054e-06
2.03072486444e-07
1.89584853867e-08
1.11772506517e-09
4.1959440254e-11
9.56098180744e-13
1.37905480219e-14
1.3758713404e-16
1.05221257231e-18
1.33480032835e-20
5.27344019278e-22
1.89691162742e-23
0.00631074342054
0.0143743602631
0.0668162619644
2.77557645897
6.27666979362
0.156251309146
0.00358882053657
0.000136031613688
3.92734562755e-06
3.58348030243e-07
3.65034080521e-08
2.63075325282e-09
1.08489554148e-10
2.76241212383e-12
4.55822898934e-14
5.03521155326e-16
3.94447970556e-18
3.78132098203e-20
1.22914297182e-21
4.22726736991e-23
0.00562996803352
0.0109997606128
0.0378231066464
0.928197223287
5.49361003605
0.0899699898551
0.00173065421434
8.49923519712e-05
4.58957147952e-06
4.96214529212e-07
6.10758739704e-08
5.0035128646e-09
2.61786222603e-10
7.1965856146e-12
1.43498459969e-13
1.74171731714e-15
1.45025198469e-17
1.14678887061e-19
2.79034113492e-21
9.07192996384e-23
0.00486287893358
0.00826488854418
0.0225434848106
0.408474932769
5.79365411734
0.0815732590408
0.001077837836
5.4998361422e-05
4.93547617698e-06
6.1327224667e-07
9.26310306003e-08
9.04744728607e-09
5.86385747019e-10
1.89236442424e-11
4.22234129613e-13
5.70209441349e-15
5.15429887833e-17
3.70442422921e-19
6.29353894957e-21
1.88093189134e-22
0.00420493130013
0.00655164244961
0.0161879432162
0.234892721178
5.85060082176
4.54356059941
0.0313562453037
0.00107209952309
3.11176022373e-05
1.29561545276e-06
1.51155523096e-07
1.61015252577e-08
1.03394537118e-09
4.71589735794e-11
1.17101409657e-12
1.76727285459e-14
1.75669726099e-16
1.24232527149e-18
1.45184424773e-20
3.78350884135e-22
0.0037214333589
0.00561491069888
0.0139338116048
0.164441496308
4.6224820992
3.62062940844
0.0891358161242
0.00240026600553
8.49798975442e-05
2.41769038531e-06
2.43571210846e-07
2.91103488904e-08
2.05048421001e-09
1.10246912349e-10
3.06461735473e-12
5.18411849178e-14
5.7147423788e-16
4.19647969672e-18
3.54055596219e-20
7.4240021438e-22
0.00338957402844
0.00514174827202
0.013314425284
0.127263878105
3.0231658445
3.8942308363
0.150464403398
0.00278345277184
9.50844810519e-05
3.26083985769e-06
3.37177805177e-07
4.49761343493e-08
4.32533404957e-09
2.38569374934e-10
7.55393657338e-12
1.43804344106e-13
1.76944504339e-15
1.39465341794e-17
9.33281397311e-20
1.43246398974e-21
0.00312532135545
0.00474634070062
0.012070643288
0.0921617416266
1.99180491198
3.69980934083
0.178580620667
0.00198496189837
7.04893864607e-05
3.54357485423e-06
4.07167324969e-07
6.36880011076e-08
7.57975858088e-09
4.82005799272e-10
1.53665290165e-11
3.79426839719e-13
5.21184990686e-15
4.49676837485e-17
2.65332090109e-19
2.75469870759e-21
0.0028762108713
0.00433808814584
0.0105168559998
0.0665399522355
1.40267230432
3.64135299709
0.248303955564
0.00140485618139
5.37762211234e-05
3.68778105712e-06
4.56400448244e-07
8.24739791109e-08
1.07295618226e-08
9.1363675734e-10
3.31905958323e-11
9.52457879958e-13
1.46411141143e-14
1.3973134527e-16
7.94241362315e-19
5.40628361551e-21
0.00264174684875
0.00399738986947
0.00942861818241
0.0525872510869
1.00176908898
3.48351383073
3.18336103599
0.032930895947
0.00100749242767
2.82400624377e-05
1.01103753959e-06
1.24042628256e-07
1.64409308477e-08
1.61617687332e-09
7.20440556921e-11
2.28051902825e-12
3.92776569988e-14
4.17206613864e-16
2.42740152462e-18
1.12161730053e-20
0.00243345734574
0.00375197850532
0.00877252756632
0.0444070539848
0.715588506244
3.08368771878
2.50487263429
0.0828142759264
0.0020561781608
7.04960418075e-05
1.83758210235e-06
1.86854050405e-07
2.57726736418e-08
2.47143590724e-09
1.49872660894e-10
5.21955454889e-12
1.00610178295e-13
1.19429718167e-15
7.38108310022e-18
2.54647050011e-20
0.00226670621095
0.00360860380815
0.00844124014659
0.0395422613017
0.536140704297
2.46957257117
2.64221187837
0.155802896755
0.00278249285743
8.78561282725e-05
2.70647582484e-06
2.58689130254e-07
3.77532197759e-08
3.48936141359e-09
2.95587260925e-10
1.13838393375e-11
2.4586769446e-13
3.27148836168e-15
2.19408080151e-17
6.39604496458e-20
0.00215697885396
0.00357122644899
0.0083687834371
0.0368938529342
0.418092647226
2.00951628906
2.74828640736
0.296091236206
0.00342462182805
0.000106440770102
3.73014030133e-06
3.3166421809e-07
5.18678911213e-08
6.08607921013e-09
5.4573904492e-10
2.37029302629e-11
5.73353202758e-13
8.56779287441e-15
6.31116804103e-17
1.73784726568e-19
0.00211048055542
0.00361683328986
0.0084104014491
0.0350734688196
0.341243251095
1.63352566406
2.54089256393
1.38873380646
0.0106424260468
0.000319128769638
8.95059234378e-06
5.04082014787e-07
7.13007261741e-08
1.03770964126e-08
9.43136669892e-10
3.75964225722e-11
1.28089097343e-12
2.14475878489e-14
1.74749381538e-16
4.91187056474e-19
0.00212360877517
0.00370470717606
0.00842862219161
0.0331478757908
0.278502252102
1.25956792484
2.14253947013
1.23568484238
0.0251918325031
0.000703060284483
2.08029309147e-05
7.99483700636e-07
9.65254549167e-08
1.45001076191e-08
1.55259515883e-09
6.40297724793e-11
2.74708429904e-12
5.13243625798e-14
4.64390834643e-16
1.39557473323e-18
0.00220322366944
0.00385483814201
0.00860896538105
0.0323840055193
0.238196593263
1.03487966598
1.85344641512
1.4573112423
0.0580387109871
0.00132373039749
4.06328605194e-05
1.16808727198e-06
1.27590878458e-07
1.92001622756e-08
2.40730709845e-09
1.17613386636e-10
5.62857987877e-12
1.17342094277e-13
1.18225008291e-15
3.89783854482e-18
0.00235990790718
0.00409710144182
0.00906885233077
0.0329900926542
0.214400995728
0.888287740841
1.68367492889
1.64542492859
0.120508514784
0.00214520473984
6.0762185714e-05
1.6970995643e-06
1.63153603813e-07
2.52810545478e-08
3.45721934331e-09
2.12994482747e-10
1.1040645483e-11
2.56299077014e-13
2.88244080648e-15
1.0575969064e-17
0.00259926981065
0.00445354779868
0.00985316751623
0.0348071648748
0.201425158526
0.785073263054
1.51824300825
1.77280023786
0.28324284091
0.00321655864536
8.82893018197e-05
2.51064410817e-06
2.06644905098e-07
3.2596926913e-08
4.48488764809e-09
3.68439174323e-10
2.08008041543e-11
5.35783696622e-13
6.73794701002e-15
2.77385516712e-17
0.00292293976883
0.0049509837399
0.0110028639529
0.0377317503694
0.19537857582
0.69846446756
1.33923059318
1.79953233658
0.63540573231
0.00743656512767
0.000198708182369
5.0708860321e-06
2.9006187443e-07
4.12871946106e-08
5.67163136208e-09
6.08326106609e-10
3.74089432144e-11
1.07334157414e-12
1.51156349727e-14
7.01996921048e-17
0.00334168473537
0.00563600274511
0.0125856694248
0.0417365053142
0.193299248412
0.614908481913
1.13772862652
1.76878033394
0.587121112231
0.0158070619241
0.000392871092771
1.01770318452e-05
4.23412941822e-07
5.32546632774e-08
7.46109111256e-09
9.57773580047e-10
6.46394242278e-11
2.05948564082e-12
3.25263444932e-14
1.71221498654e-16
0.0038967267585
0.00659026072936
0.0147289627782
0.0469411827304
0.193620978492
0.542539315292
0.944036905543
1.66446919542
0.683307233872
0.0310955196518
0.000691160305736
1.81897247196e-05
5.92623592615e-07
6.57835014003e-08
1.01097432857e-08
1.37302762636e-09
1.0190385104e-10
3.78209511604e-12
6.70619876108e-14
4.02120908476e-16
0.00467431775001
0.00794285927153
0.0176413971899
0.0535973474256
0.195693744257
0.479663183153
0.775841925808
1.50577048434
0.790249455926
0.0598542262664
0.00114512809297
2.94487061692e-05
7.84705393145e-07
7.89642380247e-08
1.25295882553e-08
1.88360456367e-09
1.27283773003e-10
6.66184378032e-12
1.32490386131e-13
9.0960426877e-16
0.00581209953578
0.00988314213304
0.0216153629835
0.0619676567017
0.198910396964
0.424907964023
0.638472808767
1.34918834701
0.881408774326
0.120650219915
0.00178390667516
4.30550355963e-05
1.09123894249e-06
9.38120117776e-08
1.50194006873e-08
2.48892080602e-09
1.63720356725e-10
1.14296328163e-11
2.51053948299e-13
1.98452459966e-15
0.00751073008875
0.0126796340122
0.027018594173
0.0722175109318
0.202535090329
0.377734458714
0.539111866263
1.22154379893
0.944548957678
0.23657969479
0.00322073632612
7.65831160141e-05
1.77710545609e-06
1.15707815578e-07
1.79452613108e-08
3.13226647511e-09
2.15335400956e-10
1.88749894031e-11
4.56459104804e-13
4.18138916774e-15
0.0100548939206
0.0166919915271
0.034239758263
0.0842274903351
0.205422378181
0.336683494324
0.471959112569
1.11476241694
0.989781751203
0.250045140636
0.00654439159618
0.000147865772548
3.29147201135e-06
1.53661976858e-07
2.10547989039e-08
3.7965293054e-09
2.85728678753e-10
2.99862760268e-11
7.95679070017e-13
8.50991038474e-15
0.0138286417985
0.0223485853857
0.0435619652675
0.0973689927639
0.205890502339
0.299014118705
0.420705994809
1.02517637893
1.01561160383
0.266850511436
0.0118984047122
0.000256696971437
5.71067029956e-06
2.0806255853e-07
2.47956310024e-08
4.5024233966e-09
3.76700932254e-10
4.57835964091e-11
1.32822229344e-12
1.67202930375e-14
0.0192923383661
0.0300562676049
0.0549628995122
0.110397283644
0.202358038522
0.263790698343
0.374659224724
0.950160467845
1.02099868907
0.292798975587
0.0193542148741
0.000466193432451
1.00443867167e-05
2.91501563091e-07
2.94882172777e-08
5.23981382169e-09
4.88829802944e-10
6.71683488079e-11
2.12865291401e-12
3.17082907366e-14
0.0268628534168
0.0399811120351
0.0678092803073
0.121407961976
0.193577088497
0.230235491944
0.338664990102
0.889394625119
1.00932398735
0.313000948567
0.0306054966994
0.000767490571964
1.91366056309e-05
4.53906911612e-07
3.58970400482e-08
6.06370697111e-09
6.24272613585e-10
9.48161519195e-11
3.29676086981e-12
5.80570924268e-14
0.0366252183627
0.051671145378
0.0805538913462
0.128076512089
0.179094063777
0.198767762318
0.310619479711
0.845404855827
0.984805225603
0.324509572712
0.0476584700738
0.001213569903
3.64104329366e-05
8.0156364561e-07
4.68827425478e-08
7.09047010328e-09
7.88217821538e-10
1.29183477521e-10
4.91919160597e-12
1.02674997175e-13
0.0478580037253
0.0636256932568
0.090696812949
0.128258249911
0.159484869668
0.170387069128
0.289621902337
0.818721882219
0.948683966843
0.326594951762
0.0644994231806
0.00193897032898
6.73222747767e-05
1.57948510598e-06
6.86308705425e-08
8.50143765115e-09
9.90103016535e-10
1.70787335454e-10
7.08912443414e-12
1.75395516201e-13
0.0585891493736
0.0731795559152
0.095345127567
0.120852192194
0.136413873502
0.146372066939
0.274894041707
0.809186322196
0.901112642184
0.322202471959
0.0702267868214
0.00310068990272
0.000119452335609
3.29757935234e-06
1.09440141253e-07
1.0767506584e-08
1.24924771649e-09
2.2084848871e-10
9.89922587146e-12
2.89381007768e-13
0.0657422855712
0.0772071656028
0.0924358425186
0.106533908736
0.11247665539
0.12839708109
0.267089032695
0.818590416601
0.843713626022
0.306520745755
0.0726491052549
0.0046763109131
0.00019738460291
6.48039082367e-06
1.85484655805e-07
1.44525573761e-08
1.60466537216e-09
2.82152088137e-10
1.34525319398e-11
4.61244767899e-13
0.0663993821207
0.073713824579
0.0820457951819
0.0879736183321
0.0911719833138
0.120356561767
0.277354653682
0.821220360376
0.781323896061
0.287107864265
0.0747152399009
0.00659565059821
0.000306375723825
1.18100233222e-05
3.23476042953e-07
2.03626735798e-08
2.12294832074e-09
3.59688272716e-10
1.78804197051e-11
7.10927428267e-13
0.0597076682381
0.0632977128024
0.0667296620965
0.0690142504882
0.0760193728962
0.125526291612
0.305927594301
0.822548678593
0.699103637931
0.26723237262
0.0753929927353
0.0087070807853
0.000449882165184
1.99006140553e-05
5.75121907385e-07
2.98292491734e-08
2.91154894542e-09
4.60761634084e-10
2.33572276513e-11
1.06147577385e-12
0.0477241316308
0.0490433054627
0.0503717519105
0.0532996205118
0.0691744991226
0.14217778865
0.338754928935
0.822442299762
0.613753021639
0.245497090829
0.0742184728119
0.0108590397913
0.000636736233004
3.17198280476e-05
1.07775093604e-06
4.55166294449e-08
4.12781093062e-09
5.93774130279e-10
3.00961122126e-11
1.53917961426e-12
0.0342199857828
0.0349032763344
0.0366632326708
0.043546379737
0.0715315523245
0.166086177762
0.375123376912
0.807068557681
0.53059737839
0.221391039104
0.0712323863903
0.0127482879985
0.000880196408462
4.89920934141e-05
1.9445241861e-06
7.11313838464e-08
6.05667755228e-09
7.6808782942e-10
3.83353624301e-11
2.17466103534e-12
0.0226950609788
0.0240504032514
0.0281151396279
0.041184132323
0.0825117938249
0.192083703126
0.430844623123
0.759762206042
0.451365815347
0.195908871759
0.0667047424312
0.0141251459103
0.00116052131363
7.25508929592e-05
3.41984630164e-06
1.14980768098e-07
8.70540879843e-09
9.93029614868e-10
4.83137572091e-11
3.00650913896e-12
0.0152676203619
0.0182192128398
0.025888969022
0.0465751115607
0.100909507235
0.218711606122
0.523980277656
0.674242449853
0.377060273792
0.169904745954
0.0609768377544
0.0148102386358
0.00145193410446
0.000104174917846
5.75044254002e-06
1.95800686594e-07
1.2089451073e-08
1.28088618993e-09
6.03648195036e-11
4.09024704262e-12
0.0127757119217
0.0182313939155
0.0311232161438
0.0621896900195
0.132792927498
0.270205551433
0.582789902905
0.568237918473
0.309716065859
0.144390876734
0.0544983354157
0.0147931042299
0.0017184218349
0.000145687451972
9.21403754699e-06
3.40330941559e-07
1.72285651103e-08
1.64046075561e-09
7.49551946609e-11
5.51527709472e-12
0.0145469802956
0.0232379626101
0.0424515034724
0.0843356794479
0.167711818873
0.357898251404
0.589185915216
0.454938370553
0.24923824199
0.119946311579
0.0476237934974
0.0141768309095
0.00193174196755
0.000192879114339
1.38250706859e-05
5.87047782453e-07
2.46981685795e-08
2.07052456297e-09
9.27863275117e-11
7.43434508061e-12
0.0198999772325
0.0333194911595
0.0612804052901
0.116695379256
0.227126243739
0.451615069721
0.516948510017
0.348502607827
0.195933252462
0.0971716661687
0.0406477153896
0.0130990303105
0.00207023460058
0.000240238930826
1.99358949925e-05
9.95660206311e-07
3.58321685765e-08
2.56964819203e-09
1.15035710564e-10
1.01101501607e-11
0.029347136546
0.049843056907
0.0898863442599
0.16881863225
0.339907082048
0.464303505993
0.40004546343
0.257248057823
0.149728279358
0.0764966647372
0.0337597835015
0.0116853716074
0.00212092570941
0.000282179849918
2.74799721989e-05
1.68215670103e-06
5.29202354096e-08
3.1298300882e-09
1.43403175074e-10
1.40567206541e-11
0.0509225945526
0.0850225413672
0.153371408571
0.273445726023
0.376922506057
0.378292284384
0.282133673744
0.183742217021
0.110977202612
0.0588018326368
0.0275204752831
0.0103461505848
0.00216122064623
0.000326211043485
3.70373264607e-05
2.62804733782e-06
7.86608932989e-08
3.64014714115e-09
1.78083707275e-10
2.02169194614e-11
0
0
0
0
9.27405249689e-33
0
7.29111566193e-32
2.50605716358e-32
3.19202686817e-31
2.497456269e-32
1.4075497146e-30
1.27665884099e-31
5.76802609321e-30
4.51206873859e-31
2.29186850221e-29
1.6211436046e-30
8.74407013717e-29
5.86702513436e-30
3.19350247911e-28
2.0548224307e-29
1.10667226889e-27
6.8695673526e-29
3.60854330766e-27
2.16015687579e-28
1.10023158704e-26
6.35866203504e-28
3.13455190701e-26
1.75868425252e-27
8.37761508237e-26
4.5890130905e-27
2.11698196543e-25
1.1377080807e-26
5.10140822013e-25
2.70191815556e-26
1.18147923143e-24
6.18416087125e-26
2.64456242871e-24
1.37671792277e-25
5.73683893633e-24
2.97963831696e-25
1.20767576958e-23
6.30342727791e-25
2.47284197543e-23
1.30117255855e-24
4.93792414456e-23
2.63906021904e-24
9.64870609939e-23
5.32392126758e-24
1.858540248e-22
1.09564031009e-23
3.58255708918e-22
2.39883321603e-23
7.11823504424e-22
5.94339531388e-23
1.52659507007e-21
1.73132447181e-22
3.68472939718e-21
5.76023063427e-22
1.00585443826e-20
2.05192078397e-21
2.98800741453e-20
7.40600656871e-21
9.19386684806e-20
2.62336129365e-20
2.82287749116e-19
8.99258788496e-20
8.47435672829e-19
2.96459342639e-19
2.46424832421e-18
9.38282408146e-19
6.91590828795e-18
2.85109737894e-18
1.87027949315e-17
8.32093456011e-18
4.86956502015e-17
2.33297777775e-17
1.22089207484e-16
6.28726545591e-17
2.95076199586e-16
1.63031703035e-16
6.88250927353e-16
4.07197919153e-16
1.54984101272e-15
9.80200321019e-16
3.36863749013e-15
2.27394760967e-15
7.06539083323e-15
5.08277844859e-15
1.42991461357e-14
1.09441788331e-14
2.7919745442e-14
2.26932584436e-14
5.25648754792e-14
4.52873554504e-14
9.53470403415e-14
8.69109580086e-14
1.6652246251e-13
1.60296649609e-13
2.80042777638e-13
2.84176211762e-13
4.53951129877e-13
4.84822323642e-13
7.10941844895e-13
7.98131880805e-13
1.07976215427e-12
1.27339293284e-12
1.5994519474e-12
1.98254067556e-12
2.32869368461e-12
3.03975917885e-12
3.3619034093e-12
4.63486985822e-12
4.86479881816e-12
7.11484094963e-12
7.12131699976e-12
1.10925858579e-11
1.06747857163e-11
1.76730856146e-11
1.79195630737e-11
3.35715349377e-11
)
;

boundaryField
{
    inletfuel
    {
        type            calculated;
        value           uniform 0;
    }
    inletair
    {
        type            calculated;
        value           uniform 0;
    }
    outlet
    {
        type            calculated;
        value           uniform 0;
    }
    axis
    {
        type            empty;
    }
    leftside
    {
        type            calculated;
        value           uniform 0;
    }
    burnerwall
    {
        type            calculated;
        value           uniform 0;
    }
    front
    {
        type            wedge;
    }
    back
    {
        type            wedge;
    }
}


// ************************************************************************* //
