/*--------------------------------*- C++ -*----------------------------------*\
  =========                 |
  \\      /  F ield         | OpenFOAM: The Open Source CFD Toolbox
   \\    /   O peration     | Website:  https://openfoam.org
    \\  /    A nd           | Version:  dev
     \\/     M anipulation  |
\*---------------------------------------------------------------------------*/
FoamFile
{
    version     2.0;
    format      ascii;
    class       volScalarField;
    location    "0.3";
    object      edc::R_O;
}
// * * * * * * * * * * * * * * * * * * * * * * * * * * * * * * * * * * * * * //

dimensions      [1 -3 -1 0 0 0 0];

internalField   nonuniform List<scalar> 
1629
(
-1.01822048271e-18
-1.2060588661e-18
-1.72274309607e-18
-1.59773084178e-16
-2.63109230582e-16
-6.90097339837e-16
-1.25628559864e-14
-3.18734801328e-14
-1.62357858906e-13
-7.29980187928e-13
-2.77323158461e-12
-2.14456870431e-11
-2.9168773433e-11
-1.11276746757e-10
-5.64413777581e-10
-1.14473238358e-09
-4.45538023009e-09
-2.02689655169e-08
-3.95101349947e-08
-2.04761679015e-07
-2.22961719727e-06
-2.49131087414e-06
-2.67091284951e-05
-0.000527713807724
-1.72337939095e-05
-0.000101951002926
-0.000829280217209
-4.86487140055e-05
-0.000162830813047
-0.000651826003924
-7.95083689657e-05
-0.000169910041083
-0.000389288855427
-9.20845092033e-05
-0.000144894560723
-0.000248791604354
-8.66767530989e-05
-0.000116143464142
-0.000191857150434
-6.96969590697e-05
-8.42146751936e-05
-0.000129923782762
-4.7540122894e-05
-5.32066697076e-05
-7.18858831848e-05
-2.79504163011e-05
-2.96671263721e-05
-3.76562691093e-05
-1.48832269623e-05
-1.61861908115e-05
-2.43842324511e-05
-7.4221964424e-06
-8.65573942497e-06
-1.48717779885e-05
-3.47216211375e-06
-4.24829794524e-06
-7.56552965024e-06
-1.51536835798e-06
-1.89353771919e-06
-3.33492215083e-06
-7.05897187387e-07
-9.94418422684e-07
-2.11843003726e-06
-5.12907038917e-07
-9.09943559438e-07
-2.47766755275e-06
-4.57391498864e-07
-8.33654130747e-07
-2.18316255623e-06
-3.60444186735e-07
-6.15155426785e-07
-1.4423710927e-06
-2.53914086032e-07
-4.0551474882e-07
-8.58673785537e-07
-2.0042478236e-07
-3.15205264291e-07
-6.70057424434e-07
-2.13991287705e-07
-3.4233123111e-07
-7.47582619895e-07
-2.34153182e-07
-3.61897770557e-07
-7.48392651881e-07
-2.18280866243e-07
-3.17436836011e-07
-5.99891491035e-07
-1.80580460201e-07
-2.48382955961e-07
-4.33467901129e-07
-1.57155709875e-07
-2.1101910624e-07
-3.58612807871e-07
-1.69529640468e-07
-2.28468905464e-07
-3.93013524858e-07
-2.10708115591e-07
-2.82239086699e-07
-4.80401747931e-07
-2.48826528458e-07
-3.25029167988e-07
-5.30778322622e-07
-2.53851828234e-07
-3.20210350419e-07
-4.93512180701e-07
-2.36358763883e-07
-2.89121208276e-07
-4.2360526833e-07
-2.30172123243e-07
-2.77153145047e-07
-3.96243345271e-07
-2.59033579785e-07
-3.10475862674e-07
-4.41139107592e-07
-3.23723040774e-07
-3.85651673416e-07
-5.42181988977e-07
-4.07455476982e-07
-4.79814741178e-07
-6.60793380489e-07
-4.86878026528e-07
-5.64797121934e-07
-7.57468434312e-07
-5.47495706336e-07
-6.2530816806e-07
-8.15232021549e-07
-5.93690782083e-07
-6.68357260808e-07
-8.48484687192e-07
-6.48363147896e-07
-7.21489299883e-07
-8.96286783069e-07
-7.40742385374e-07
-8.17434921357e-07
-9.99491510303e-07
-8.90294199269e-07
-9.76014124518e-07
-1.17824045034e-06
-1.10319770355e-06
-1.20193180415e-06
-1.43349215112e-06
-1.37048381202e-06
-1.48368987364e-06
-1.74787215342e-06
-1.67340453965e-06
-1.80089691687e-06
-2.09782269862e-06
-2.00123563607e-06
-2.1442324982e-06
-2.47784973776e-06
-2.38128617893e-06
-2.54650813752e-06
-2.93378074429e-06
-2.91431226819e-06
-3.11794985021e-06
-3.5971492693e-06
-3.85200855944e-06
-4.12944151026e-06
-4.7828696703e-06
-5.68376572296e-06
-6.10579991645e-06
-7.09779534662e-06
-9.16944552453e-06
-9.85524250915e-06
-1.14614177426e-05
-1.54224345027e-05
-1.65489524752e-05
-1.91760004735e-05
-2.6105035584e-05
-2.79184482751e-05
-3.21290134888e-05
-4.38685600576e-05
-4.67127846758e-05
-5.32890973742e-05
-7.91040007161e-05
-8.39288084066e-05
-9.50529544978e-05
-0.000149848925014
-0.00015834096062
-0.000177858685479
-0.000299588317544
-0.000315281337719
-0.000351243130736
-0.000629077680653
-0.000659311226214
-0.000728388464849
-0.00141382053127
-0.00147692496536
-0.00162077560678
-4.90965968661e-11
-1.45974528838e-09
-7.90118659177e-08
-2.52723370999e-05
-0.00933797225662
-0.0048606665684
-0.00181175078794
-0.000645086652545
-0.000472238763209
-0.000489775804229
-0.000293164532477
-0.000134614216467
-7.00169253461e-05
-6.44145591054e-05
-4.01532885177e-05
-1.8414006618e-05
-7.17699602995e-06
-5.66854107511e-06
-7.58195776823e-06
-6.03170218167e-06
-3.4847813352e-06
-1.89444398814e-06
-1.52263147504e-06
-1.75522637642e-06
-1.64832913373e-06
-1.20275341304e-06
-8.061911873e-07
-6.60129171233e-07
-7.38093574566e-07
-8.89457465678e-07
-9.38419402039e-07
-8.19605681389e-07
-6.6753652813e-07
-6.10955102758e-07
-6.77670993127e-07
-8.23255913116e-07
-9.80448951656e-07
-1.0908809609e-06
-1.13705133654e-06
-1.14791407477e-06
-1.18256645515e-06
-1.29447960548e-06
-1.50276536979e-06
-1.80164939602e-06
-2.1648252733e-06
-2.56483857432e-06
-3.00372830868e-06
-3.54775182679e-06
-4.36008967758e-06
-5.82307031876e-06
-8.67088068721e-06
-1.39933335195e-05
-2.32879556238e-05
-3.86711868739e-05
-6.3433830268e-05
-0.000112129876512
-0.000207655378083
-0.000405864947456
-0.000832763025415
-0.00183723905592
-1.79608183187e-21
-1.46241365906e-20
-5.7198643596e-20
-1.11033911316e-19
-7.7028922117e-20
-2.22257147114e-20
-3.16803852017e-21
-2.49710421288e-22
-1.15159547438e-23
-2.27991372088e-25
1.55764353267e-26
2.60319964446e-27
2.49475141002e-28
1.89179933145e-29
1.18307869892e-30
6.16938177094e-32
2.70381269488e-33
9.99362392964e-35
3.2393428804e-36
3.74836512758e-37
-2.61175607869e-18
-5.55153398032e-18
-2.25365284251e-17
-5.14898343903e-17
-3.16142365005e-17
-7.17429456697e-18
-7.74837279629e-19
-4.65767737776e-20
-1.75091000002e-21
-4.19566735886e-23
-4.58559450318e-25
2.15649846428e-26
2.47438131775e-27
1.75855775038e-28
1.02096938574e-29
4.99422421446e-31
2.07932196641e-32
7.38335220389e-34
2.34295752805e-35
2.65618617222e-36
-5.16107033898e-15
-7.04032334553e-16
-3.14701128375e-15
-8.30616296341e-15
-4.42341864477e-15
-7.97892004173e-16
-6.72871308013e-17
-3.21342268257e-18
-9.86795259378e-20
-2.02560732439e-21
-2.71356995144e-23
-9.02893959945e-26
1.39107453509e-26
1.02588653263e-27
5.63065022426e-29
2.59627282819e-30
1.0193295997e-31
3.39726051173e-33
1.00331950466e-34
1.15375275984e-35
-1.2063950669e-11
-3.90896307184e-13
-4.5744792137e-13
-8.62512122843e-13
-3.79507188425e-13
-5.79951500459e-14
-4.06404349685e-15
-1.66147767962e-16
-4.42975716468e-18
-8.05085858701e-20
-1.01951329379e-21
-8.26429152565e-24
2.99874029793e-26
5.50267061537e-27
3.01737041543e-28
1.33415492287e-29
4.97179875984e-31
1.53738392556e-32
4.17820189291e-34
5.92508495889e-35
-1.66031148208e-09
-1.69265097452e-10
-1.45913373853e-10
-1.14706903771e-10
-3.61048425385e-11
-4.25638698463e-12
-2.38735558223e-13
-8.36093215104e-15
-1.90496934928e-16
-3.03424476486e-18
-3.47793061774e-20
-2.87331179465e-22
-1.33017434719e-24
2.25767457729e-26
1.53168895406e-27
6.51857312018e-29
2.24940166806e-30
5.97455127335e-32
1.21150532968e-33
2.86178751472e-34
-7.62993852697e-07
-2.03213069332e-06
-1.47126501132e-07
-1.92281537655e-08
-3.25517509133e-09
-2.8865031061e-10
-1.33738462367e-11
-3.68084505775e-13
-7.14802844675e-15
-9.91290410447e-17
-1.02438083853e-18
-7.97326511029e-21
-4.51471514836e-23
-6.58236153178e-26
6.47927108188e-27
2.76527649273e-28
8.15955282723e-30
1.26110926147e-31
-2.67911192795e-33
5.42195898739e-34
-0.000711166360342
-0.017913937119
-0.000311654384636
-1.00167814248e-05
-3.23110775034e-07
-1.62921995876e-08
-5.58859882748e-10
-1.29085303718e-11
-2.03464223352e-13
-2.54037957348e-15
-2.41547470857e-17
-1.78734575963e-19
-1.02274897336e-21
-4.04486743013e-24
1.09657534264e-26
8.2886221578e-28
1.27806888841e-29
-7.73049094072e-31
-8.30173312651e-32
-5.86788233185e-33
-0.282702788799
1.11266364286
-0.153414308095
-0.00317929209263
-2.9805964722e-05
-5.01288059531e-07
-1.33601492996e-08
-2.56932039844e-10
-3.75396857352e-12
-4.38707255895e-14
-4.09599255618e-16
-3.03873876364e-18
-1.77463249797e-20
-8.02046151092e-23
-2.38511069411e-25
-6.17768662792e-28
-1.42818690811e-28
-1.34781037045e-29
-8.75795447784e-31
-8.26824215834e-32
-0.0439457749746
-0.519215208664
-0.0251220542867
-0.000970384789601
-3.60245880924e-05
-1.0199619977e-06
-4.65377265893e-08
-1.47945225395e-09
-2.96507966713e-11
-4.1346727366e-13
-4.50554826941e-15
-3.69410342705e-17
-2.33716951048e-19
-1.15084746647e-21
-4.67122904752e-24
-3.94788543412e-26
-2.02107984099e-27
-1.24063280721e-28
-6.97385042772e-30
-6.606360495e-31
-0.00599567747086
-0.052512375678
-0.00361341249683
-0.000252313956184
-2.60526095353e-05
-1.31163671182e-06
-9.03452493289e-08
-4.64958980837e-09
-1.37021717468e-10
-2.60042578818e-12
-3.44874646401e-14
-3.31575435942e-16
-2.38133507688e-18
-1.30226782453e-20
-5.86342670062e-23
-4.60718833148e-25
-1.73315768006e-26
-9.08040201758e-28
-4.72903735619e-29
-4.16648551418e-30
-0.000944863413834
-0.00421543132394
-0.00888391769025
-0.000248634189926
-2.78080889642e-05
-2.01671581489e-06
-1.71315161743e-07
-1.19652657909e-08
-5.05117160375e-10
-1.27570885263e-11
-2.0692525357e-13
-2.37768161687e-15
-1.97041195477e-17
-1.21342235384e-19
-5.95775558291e-22
-4.13983214742e-24
-1.21604833995e-25
-5.758519113e-27
-2.84698385994e-28
-2.26453660169e-29
-0.0027162803151
-0.14656731758
0.450863614737
-0.0638183275624
-0.00185389419754
-3.17047586082e-05
-9.19179151875e-07
-4.87394022945e-08
-2.10195438973e-09
-5.61595071289e-11
-1.09387669833e-12
-1.46753576518e-14
-1.38910073445e-16
-9.63503251438e-19
-5.17203082273e-21
-3.27491370809e-23
-7.50182747477e-25
-3.25621181038e-26
-1.54683864061e-27
-1.09844273345e-28
-0.0035094487911
-0.131413636514
0.171897086728
-0.0527382222712
-0.00166857291383
-6.20515223012e-05
-1.91586002939e-06
-1.22850047458e-07
-6.27573197164e-09
-2.29186912606e-10
-5.0951737154e-12
-7.81697580327e-14
-8.44735541942e-16
-6.61314482376e-18
-3.90385733725e-20
-2.34731412514e-22
-4.1673064511e-24
-1.65424912718e-25
-7.61681573659e-27
-4.82438151079e-28
-0.0014301090744
-0.0249537512134
-0.160904294557
-0.0124215857278
-0.000567318187946
-4.68162245966e-05
-2.46526683913e-06
-2.02042678631e-07
-1.50756954264e-08
-6.79250202457e-10
-1.93188354044e-11
-3.42059264722e-13
-4.40586749404e-15
-3.92923901261e-17
-2.57444822693e-19
-1.52789570964e-21
-2.10267980375e-23
-7.53517229998e-25
-3.39098062209e-26
-1.92690443742e-27
-0.000450107245301
-0.0046186270501
-0.0230240399961
-0.0061168500771
-0.000273460699546
-2.91593543324e-05
-3.16320276483e-06
-3.03588600649e-07
-2.82253512979e-08
-1.69392232782e-09
-6.11558961193e-11
-1.31228094841e-12
-1.98016451828e-14
-2.02890611151e-16
-1.48984707334e-18
-9.02433538577e-21
-9.73043616409e-23
-3.06656046917e-24
-1.35908678582e-25
-6.99905502616e-27
-0.000271607804594
-0.00385843202826
-0.0606651773632
0.206805109357
-0.0279798340239
-0.000796577547219
-1.72741973388e-05
-6.91560312692e-07
-5.69562613261e-08
-3.75442489383e-09
-1.62282120345e-10
-4.46274693859e-12
-7.80724164826e-14
-9.2141621283e-16
-7.63324308651e-18
-4.85434978578e-20
-4.2192839026e-22
-1.11854552734e-23
-4.89770208057e-25
-2.3134529419e-26
-0.000344426214282
-0.00529035365
-0.109857715178
0.232592030621
-0.0400428246892
-0.00105966476221
-3.33085153058e-05
-1.20264948082e-06
-1.01361452398e-07
-8.15158557074e-09
-4.252119745e-10
-1.34085988198e-11
-2.73726325359e-13
-3.72644301108e-15
-3.49813390406e-17
-2.39091566867e-19
-1.76513568269e-21
-3.71215433717e-23
-1.59417674515e-24
-6.98885894789e-26
-0.000175100822798
-0.00180073690114
-0.0279504737019
-0.130703916697
-0.0114609676085
-0.00041498436348
-2.56421106247e-05
-1.41429174965e-06
-1.46680258833e-07
-1.35753297563e-08
-8.97183284962e-10
-3.57336154529e-11
-8.21075192761e-13
-1.35549932676e-14
-1.4472927351e-16
-1.08273255272e-18
-7.27655291347e-21
-1.15252505428e-22
-4.73501660075e-24
-1.94582022574e-25
-6.3303220518e-05
-0.000442550619491
-0.00496854596218
-0.0224455720185
-0.00242084485601
-0.000125133334692
-1.24531439698e-05
-1.45634133221e-06
-1.88274096205e-07
-2.20066615551e-08
-1.72990850876e-09
-8.59181011801e-11
-2.37230264603e-12
-4.48585874545e-14
-5.45657385232e-16
-4.52580858833e-18
-2.96410930113e-20
-3.47693618669e-22
-1.30182220935e-23
-5.04804005685e-25
-2.09150391348e-05
-0.000112093094721
-0.000943393192001
-0.00330104715431
-0.00440480745368
-0.000157661246991
-9.90626184171e-06
-1.67696552454e-06
-2.54246408132e-07
-3.41287953226e-08
-3.21561333761e-09
-1.70354967679e-10
-6.33359906417e-12
-1.36871167293e-13
-1.89586441793e-15
-1.75563817648e-17
-1.18101312357e-19
-1.06047766614e-21
-3.36837599205e-23
-1.23460200883e-24
-2.2689871576e-05
-0.000223796207708
-0.00389355718547
-0.0479373268447
0.198980915493
-0.0291302737455
-0.000906853547599
-2.28610483297e-05
-7.08281887962e-07
-6.48755449397e-08
-6.20808915583e-09
-3.9144551576e-10
-1.59151978224e-11
-3.91095573862e-13
-6.14169346911e-15
-6.36411430439e-17
-4.54831096905e-19
-3.36036381964e-21
-8.3464976441e-23
-2.87568528933e-24
-3.29617224239e-05
-0.000323064055825
-0.00469878025773
-0.0673942823676
0.119979510609
-0.030009897361
-0.000910649790236
-3.48841009301e-05
-1.13113091516e-06
-1.07949408308e-07
-1.11411953684e-08
-8.40741205508e-10
-3.76746867496e-11
-1.03547347636e-12
-1.86939535596e-14
-2.16842474615e-16
-1.67961918217e-18
-1.11130873058e-20
-2.01752812361e-22
-6.42604026714e-24
-2.25509043794e-05
-0.000168161410714
-0.00160873547792
-0.0180303512092
-0.084897162129
-0.00815768738634
-0.000332635169313
-1.88292624638e-05
-1.23098773494e-06
-1.45002883735e-07
-1.78828948662e-08
-1.51398209203e-09
-8.36887783417e-11
-2.49915584524e-12
-5.36903854242e-14
-6.9700193799e-16
-5.92302627472e-18
-3.78104741338e-20
-4.86249673044e-22
-1.38434172809e-23
-1.10683292767e-05
-6.31321462876e-05
-0.000417253348693
-0.00355770114758
-0.0138112644621
-0.00317737212126
-0.000154487146195
-1.02706467005e-05
-1.23872622385e-06
-1.76918553886e-07
-2.66010397906e-08
-2.62377656765e-09
-1.74043362559e-10
-6.10800438357e-12
-1.45842016654e-13
-2.12038083033e-15
-1.99159380212e-17
-1.295704697e-19
-1.20014813615e-21
-2.8876831378e-23
-5.48084376772e-06
-2.87898450085e-05
-0.000194821203936
-0.0024593671437
-0.0201813480731
0.0862031258899
-0.0127192111855
-0.000391752988667
-9.9827219098e-06
-3.95265517082e-07
-4.36325320846e-08
-4.55251814646e-09
-3.06546792796e-10
-1.41742494356e-11
-3.7619081126e-13
-6.12326873925e-15
-6.38626380464e-17
-4.38918177805e-19
-3.1143933743e-21
-5.86843523857e-23
-4.82193508468e-06
-3.15184508256e-05
-0.000277303435104
-0.00435920258258
-0.0466314797766
0.131398319563
-0.0243739527417
-0.000723325306838
-2.35760201289e-05
-6.93571513385e-07
-6.92708144676e-08
-7.88152854617e-09
-5.76605159924e-10
-3.10541506554e-11
-9.21624486395e-13
-1.6810660628e-14
-1.95351932334e-16
-1.4503828828e-18
-8.61139647037e-21
-1.1726515308e-22
-5.81208024368e-06
-3.91498684812e-05
-0.000328738250653
-0.00426895552787
-0.0484529924232
0.0586291785046
-0.0215136688442
-0.000600965991247
-2.13611117802e-05
-8.45646030819e-07
-9.27458335305e-08
-1.20086285624e-08
-1.12059684429e-09
-6.36064552953e-11
-2.14054092496e-12
-4.38768692081e-14
-5.7005320261e-16
-4.63680131101e-18
-2.51850191412e-20
-2.33655024403e-22
-5.03508691495e-06
-2.92099720809e-05
-0.000198865626435
-0.00187383860787
-0.0184171655626
-0.0394164505595
-0.00840686267474
-0.000283449248211
-1.22920131762e-05
-8.20456249727e-07
-1.08034114472e-07
-1.68122387377e-08
-1.88990805506e-09
-1.22613411389e-10
-4.25946121778e-12
-1.09145277593e-13
-1.5880105715e-15
-1.42802834012e-17
-7.6224305191e-20
-4.74350755598e-22
-3.28022297065e-06
-1.58291196629e-05
-8.55180458374e-05
-0.000581632146039
-0.00429097712637
-0.0159078249663
-0.00338141269589
-0.000155986612065
-7.58496471062e-06
-7.60971123242e-07
-1.16866570774e-07
-2.17038189115e-08
-2.72630148687e-09
-2.23664186015e-10
-8.89355390589e-12
-2.59664335315e-13
-4.23360795955e-15
-4.23045326383e-17
-2.33081201441e-19
-1.01075707478e-21
-2.02910743705e-06
-8.8397565472e-06
-4.43313588721e-05
-0.00029171374137
-0.00253874796305
-0.0188172571313
0.075863800153
-0.0110832515263
-0.000317537622367
-7.8825739239e-06
-2.71557122857e-07
-3.25786638933e-08
-4.16238054415e-09
-3.85897368917e-10
-1.84011652901e-11
-5.92219269347e-13
-1.08178860951e-14
-1.2049749916e-16
-7.06539819907e-19
-2.32766756602e-21
-1.68209284963e-06
-7.81756559206e-06
-4.43960194323e-05
-0.000338786851668
-0.00394803291618
-0.0372297814851
0.100113950554
-0.0202281152819
-0.000577574162959
-1.79523436141e-05
-4.73762416205e-07
-4.82449438968e-08
-6.40770657504e-09
-5.97313033201e-10
-3.64151298744e-11
-1.2950577668e-12
-2.64890959613e-14
-3.29689330928e-16
-2.09529031562e-18
-5.8566191367e-21
-1.94150409103e-06
-9.45306694239e-06
-5.52164174603e-05
-0.000412309172399
-0.00487404835098
-0.0472307897376
0.0816649135439
-0.0227817340533
-0.000632183185012
-1.92798947364e-05
-6.39456441666e-07
-6.4494169324e-08
-9.21021231821e-09
-8.74818885489e-10
-6.8450330046e-11
-2.70698001776e-12
-6.20941460803e-14
-8.65360157869e-16
-6.02646808287e-18
-1.5833048598e-20
-2.28979733471e-06
-1.06655321063e-05
-5.83357700009e-05
-0.000394756649656
-0.00391285201052
-0.0375350214826
0.030029817969
-0.017980707379
-0.000593363077461
-1.91508288381e-05
-7.72620622682e-07
-7.8107987605e-08
-1.23789612079e-08
-1.45706760444e-09
-1.21558464459e-10
-5.41537618715e-12
-1.39356449751e-13
-2.1776068704e-15
-1.672542745e-17
-4.45168471895e-20
-2.27401078939e-06
-9.61226546227e-06
-4.69803392597e-05
-0.00027664178789
-0.00223283547319
-0.0199824561368
-0.00856835171046
0.0155743859743
-0.00376150690816
-0.000100191670223
-2.43924390294e-06
-1.27852113506e-07
-1.73371319672e-08
-2.34821020611e-09
-2.05157512755e-10
-8.91333770317e-12
-3.00206859556e-13
-5.25356919414e-15
-4.46732242851e-17
-1.26217030253e-19
-1.82903879522e-06
-6.78673088605e-06
-2.8566491893e-05
-0.000139468888736
-0.000846917697769
-0.00633339096354
-0.0278307185554
0.0342384781752
-0.00761739827309
-0.000206389471017
-5.5717446998e-06
-2.06565786875e-07
-2.39049485918e-08
-3.31236409196e-09
-3.32675080038e-10
-1.55092359103e-11
-6.2173311764e-13
-1.21535947861e-14
-1.14650618316e-16
-3.53184673576e-19
-1.39288416594e-06
-4.71086845642e-06
-1.82844790757e-05
-8.31327216823e-05
-0.000467827415264
-0.00386607745201
-0.0276668628102
0.0672191056446
-0.0141888095274
-0.000364807685466
-1.00419117077e-05
-2.92887309719e-07
-3.17120747385e-08
-4.46746656559e-09
-5.14140061278e-10
-2.79146066038e-11
-1.23429880296e-12
-2.69512903597e-14
-2.82422278816e-16
-9.63068555042e-19
-1.24720255264e-06
-4.19147295853e-06
-1.67368875198e-05
-8.05718090198e-05
-0.000494037657185
-0.00469464025838
-0.0391509127188
0.0848730186722
-0.020757946624
-0.000545937923163
-1.39093363512e-05
-4.02661537024e-07
-3.9734757411e-08
-5.92757055482e-09
-7.43321631018e-10
-4.88475103291e-11
-2.35245440027e-12
-5.73145112369e-14
-6.67850847595e-16
-2.54303735007e-18
-1.3834336005e-06
-4.71444792104e-06
-1.91758827584e-05
-9.30581684922e-05
-0.000565735959651
-0.00540810757488
-0.0450756208434
0.0772019451961
-0.0239989382853
-0.000739584837922
-1.87548386416e-05
-5.52536411777e-07
-4.85684225506e-08
-7.62855824722e-09
-9.86037873239e-10
-8.16532912244e-11
-4.31615607497e-12
-1.171188235e-13
-1.5181662281e-15
-6.48861150883e-18
-1.6568650442e-06
-5.52481795571e-06
-2.17778481e-05
-0.000100838473983
-0.000575377874342
-0.00514477980254
-0.0419336367285
0.0549979091715
-0.00945056833776
-0.00253740403943
-5.83158291451e-05
-1.3079015677e-06
-7.0809758661e-08
-9.76473590846e-09
-1.28680375718e-09
-1.3085041047e-10
-7.60735654308e-12
-2.30311049351e-13
-3.32155427267e-15
-1.59904289212e-17
-1.91271287451e-06
-6.06824742817e-06
-2.25639273326e-05
-9.73833542937e-05
-0.000512006224788
-0.00404070691029
-0.0322376351538
0.0270140786445
0.00142417882733
-0.00465523569342
-0.000110027654471
-2.59741990745e-06
-1.04612799515e-07
-1.27761903636e-08
-1.72957663209e-09
-2.01302631126e-10
-1.29258683706e-11
-4.35762500425e-13
-6.99344815065e-15
-3.80419518187e-17
-2.04128885374e-06
-6.06347788786e-06
-2.09392334374e-05
-8.28821779352e-05
-0.000395748204507
-0.0027649306008
-0.0213013832408
0.00190361246668
0.0202160127498
-0.00778622758535
-0.000184198698465
-4.38522061603e-06
-1.4427791808e-07
-1.57636650587e-08
-2.33994019046e-09
-2.90275366452e-10
-2.03257468257e-11
-7.92876717665e-13
-1.41608474757e-14
-8.73233277938e-17
-2.03125172572e-06
-5.60765834092e-06
-1.78336533755e-05
-6.40971122312e-05
-0.000276642545077
-0.00173371718162
-0.0128864134647
-0.0166026047584
0.0422778235758
-0.0123597044099
-0.000302329556491
-6.86605471893e-06
-1.87951259643e-07
-1.89694194378e-08
-2.92316240462e-09
-4.02891345974e-10
-2.65828588574e-11
-1.38931651051e-12
-2.75876978086e-14
-1.93490092925e-16
-1.95849797752e-06
-5.02498052936e-06
-1.46933235279e-05
-4.79429029675e-05
-0.000189478349682
-0.00109732814063
-0.00799772906515
-0.029104421325
0.0592700625144
-0.0172772035946
-0.000484209335594
-1.0226357461e-05
-2.59886454429e-07
-2.25947603238e-08
-3.54839750833e-09
-5.40102448313e-10
-3.58188509634e-11
-2.36562129458e-12
-5.17801571489e-14
-4.14471302245e-16
-1.93940556525e-06
-4.67129394781e-06
-1.27203535124e-05
-3.87124303513e-05
-0.000147593338948
-0.000832109146406
-0.00616460240738
-0.0353398634053
0.0675783205485
-0.0183529332682
-0.00115241334861
-2.28277119782e-05
-4.77608923821e-07
-2.91588010169e-08
-4.3428105772e-09
-6.97619785729e-10
-4.91396624394e-11
-3.89212480175e-12
-9.37287417873e-14
-8.594951998e-16
-2.05876977532e-06
-4.72367170042e-06
-1.22555179099e-05
-3.63739834661e-05
-0.000140939264332
-0.000787522835818
-0.00592691438714
-0.0383471925969
0.069908406708
-0.0178826309988
-0.00223486354953
-4.49761579973e-05
-9.26436691293e-07
-4.05265311152e-08
-5.26578579024e-09
-8.75797911899e-10
-6.75345477489e-11
-6.18899073336e-12
-1.63602758134e-13
-1.72617955955e-15
-2.32858209827e-06
-5.13235772877e-06
-1.2903801934e-05
-3.83583604433e-05
-0.000151628187893
-0.000821110340378
-0.00605552367201
-0.0400300793157
0.0690395531295
-0.0164303819978
-0.00353834505077
-7.48288075297e-05
-1.56020431813e-06
-5.57766192359e-08
-6.38811256564e-09
-1.07679160312e-09
-9.15410825638e-11
-9.50908210578e-12
-2.75200037655e-13
-3.35683927238e-15
-2.72527758167e-06
-5.80812170703e-06
-1.43695132601e-05
-4.33856700864e-05
-0.000172916460943
-0.000895401374936
-0.00608948553571
-0.0405599330006
0.0662170625543
-0.0125001107251
-0.00507627930855
-0.000132754232397
-2.64910126222e-06
-7.81627375092e-08
-7.7609322454e-09
-1.29656581925e-09
-1.21411510692e-10
-1.41215379632e-11
-4.46756904899e-13
-6.32146118934e-15
-3.20341444405e-06
-6.65270522241e-06
-1.64012160996e-05
-5.03322574292e-05
-0.000198610551212
-0.000974559772501
-0.00611607517064
-0.0403867523667
0.0626670964384
-0.00763279333882
-0.00690203115815
-0.000222031174005
-4.94123564835e-06
-1.20779537559e-07
-9.51519428587e-09
-1.54430297328e-09
-1.57867194811e-10
-2.02983437849e-11
-7.02662883466e-13
-1.15353726179e-14
-3.73280587e-06
-7.64837097868e-06
-1.90139482193e-05
-5.90159153903e-05
-0.000227482166801
-0.00105617811937
-0.00615105585959
-0.0400290841167
0.059634937962
-0.00309097985642
-0.00870141460742
-0.000373904698762
-9.77550378648e-06
-2.1647588768e-07
-1.25507368352e-08
-1.84819411875e-09
-2.02659364974e-10
-2.83131627637e-11
-1.06965068739e-12
-2.04114799264e-14
-4.34009066542e-06
-8.91034663121e-06
-2.24920393314e-05
-6.98865481519e-05
-0.000260628320826
-0.00114649441874
-0.00623217394499
-0.0397992865932
0.0574908204279
0.000594275066534
-0.00989903525709
-0.000639105485333
-1.95937586488e-05
-4.40170506892e-07
-1.89034852067e-08
-2.26067469358e-09
-2.59140543148e-10
-3.84850661866e-11
-1.57882753482e-12
-3.50322036441e-14
-5.14212166276e-06
-1.06909902554e-05
-2.72851857763e-05
-8.36695154727e-05
-0.000299944866593
-0.00125269249054
-0.00638467082119
-0.039765709539
0.0564242982815
0.00321547234272
-0.0108400180043
-0.000992262654757
-3.58883806986e-05
-9.16341308211e-07
-3.05228683428e-08
-2.90589608132e-09
-3.33308774723e-10
-5.12809165378e-11
-2.26472893279e-12
-5.83200552306e-14
-6.37184232853e-06
-1.33895204711e-05
-3.40676924444e-05
-0.000101778834244
-0.000349797516887
-0.00139077391981
-0.00667247062305
-0.0398525030344
0.0569396273685
0.00358832080812
-0.0113262175063
-0.00138994014722
-5.94725604794e-05
-1.74181066951e-06
-5.14561794204e-08
-3.9294141902e-09
-4.35609368561e-10
-6.74697712239e-11
-3.16681786709e-12
-9.4192075256e-14
-8.57373515452e-06
-1.80639755963e-05
-4.53457068598e-05
-0.000131653150769
-0.000436393088905
-0.00166768740881
-0.00761755405936
-0.0382082171503
0.058267397174
0.0030387510598
-0.011397728448
-0.00181099691863
-9.19516374587e-05
-3.11679414159e-06
-8.83511103944e-08
-5.55172722653e-09
-5.83271027527e-10
-8.82812905934e-11
-4.33263647012e-12
-1.47696739284e-13
-1.2805163151e-05
-2.68355624797e-05
-6.6154513815e-05
-0.000186972446745
-0.000600965856423
-0.00222022661959
-0.00971231697171
-0.032299156739
0.0564231707544
0.00222975984117
-0.0111304944527
-0.00220198819017
-0.00013445968264
-5.29940581761e-06
-1.54905740992e-07
-8.16110713028e-09
-8.04588529828e-10
-1.15533345304e-10
-5.8216715181e-12
-2.25154052527e-13
-2.05837490484e-05
-4.25171525684e-05
-0.000102319081085
-0.000280518744754
-0.000871270293628
-0.00309664807229
-0.012898142762
-0.0231050190013
0.0531380973283
0.00103294001027
-0.0106277495433
-0.00252484901511
-0.00018972934124
-8.73914162936e-06
-2.88162709163e-07
-1.25744764036e-08
-1.14129767366e-09
-1.51597030608e-10
-7.70809096039e-12
-3.34420900417e-13
-3.38843051754e-05
-6.83855856343e-05
-0.00015966056424
-0.000422537987457
-0.00126205976667
-0.00429197384963
-0.0169264753967
-0.0113200050948
0.0486608996667
-0.00056130700112
-0.00999405095029
-0.00275240060506
-0.000260473076173
-1.40917725314e-05
-5.19679910017e-07
-1.98336940028e-08
-1.66783400035e-09
-1.9963081389e-10
-1.00840109676e-11
-4.85492525074e-13
-5.53707257286e-05
-0.000108520582197
-0.000244833044215
-0.000623803037153
-0.00178770934811
-0.00580240925204
-0.0215745019614
0.00310242428286
0.0424998220055
-0.00233971454009
-0.00928906346769
-0.00287974774031
-0.000338500740344
-2.16223650828e-05
-9.25436566469e-07
-3.23122826619e-08
-2.41213242184e-09
-2.63519612367e-10
-1.30566992703e-11
-6.91969524998e-13
-8.9102469662e-05
-0.000168976392096
-0.000367600162972
-0.000900480824538
-0.00247249888078
-0.00764234233143
-0.0258215539348
0.0183973178961
0.0347753006775
-0.00407084850817
-0.00854288550877
-0.00290888526811
-0.000414821993164
-3.16281094305e-05
-1.58666915905e-06
-5.53500227946e-08
-3.42557729778e-09
-3.48026510521e-10
-1.67810467058e-11
-9.74256410369e-13
-0.000155090268375
-0.000286749870225
-0.000607532077362
-0.00144844009435
-0.00386514129432
-0.0115634972922
-0.0202255356004
0.02964411309
0.0259423897406
-0.0055091959857
-0.00777244855649
-0.00285006357103
-0.000479407170068
-4.42931107928e-05
-2.60470204441e-06
-9.5927419798e-08
-4.96359717347e-09
-4.57768793067e-10
-2.14762069391e-11
-1.36560325832e-12
-0.000282134891079
-0.000506337337779
-0.00103895993535
-0.00239283172276
-0.00614224472658
-0.017425542139
-0.00552513958844
0.033920672413
0.0168994511639
-0.00647809238285
-0.00698134688704
-0.002713259725
-0.00052535481238
-5.79953736316e-05
-4.01034151851e-06
-1.64989115442e-07
-7.22487671866e-09
-5.9549853506e-10
-2.74621565734e-11
-1.92289020736e-12
-0.000541578381156
-0.000943123808921
-0.00187400256056
-0.00417019704702
-0.0102926095358
-0.0173483925828
0.0121411699397
0.031017910799
0.00871597270022
-0.00690974722446
-0.0061734423246
-0.00251039241032
-0.000548642230944
-7.10618077826e-05
-5.90769671348e-06
-2.79648796006e-07
-1.06213370927e-08
-7.6335930703e-10
-3.52354529805e-11
-2.74425059952e-12
-0.00109050368921
-0.00183957555831
-0.00353144526084
-0.00756283146955
-0.0157135563522
-0.0033907877795
0.0234162377142
0.0227770741363
0.00219224800932
-0.00684095675732
-0.00534566804472
-0.00225165795605
-0.000547375154205
-8.19673190161e-05
-8.23187703501e-06
-4.73343200669e-07
-1.59114590961e-08
-9.61374871359e-10
-4.55048159287e-11
-4.02125762398e-12
-0.00236910064339
-0.00389223776883
-0.00723410339278
-0.0124346354194
-0.00675080957506
0.0120123751213
0.0232735550496
0.0127432606422
-0.00202923096126
-0.00632769268922
-0.00453792406067
-0.00199265376887
-0.000539609220633
-9.27773567489e-05
-1.10885455565e-05
-7.52220643699e-07
-2.38629950742e-08
-1.16038479757e-09
-5.85642161877e-11
-6.10293627184e-12
-7.16600803009e-35
-5.1240400377e-35
8.52853125248e-35
1.61005021434e-35
2.547371483e-34
-6.63648149878e-35
-1.34484737413e-33
-4.37243612363e-34
-1.82403004249e-32
-2.42548901186e-33
-1.21208818738e-31
-1.17758219815e-32
-6.30528334321e-31
-5.16592084117e-32
-2.86093337848e-30
-2.09930890742e-31
-1.18046439867e-29
-8.01590656044e-31
-4.51094843357e-29
-2.89415606501e-30
-1.60557472246e-28
-9.87849425972e-30
-5.31918285979e-28
-3.16279253382e-29
-1.63798101856e-27
-9.42173829472e-29
-4.69621952271e-27
-2.63231345864e-28
-1.26064048377e-26
-6.91563538851e-28
-3.19504409646e-26
-1.72264645318e-27
-7.7173973778e-26
-4.10671160291e-27
-1.79132594022e-25
-9.44923897169e-27
-4.01847015829e-25
-2.1113906739e-26
-8.73903563571e-25
-4.60292028861e-26
-1.84632632234e-24
-9.81226800637e-26
-3.80081380429e-24
-2.05512430828e-25
-7.65942196917e-24
-4.27944470884e-25
-1.52258141982e-23
-9.05956147432e-25
-3.02739831988e-23
-2.02681390736e-24
-6.17499327554e-23
-5.04778735086e-24
-1.34267614457e-22
-1.44627468109e-23
-3.23189587612e-22
-4.69531429763e-23
-8.69832322002e-22
-1.63950792041e-22
-2.54643682097e-21
-5.85174529258e-22
-7.76368361897e-21
-2.06664096795e-21
-2.37799195574e-20
-7.10082625158e-21
-7.15742407122e-20
-2.35488737398e-20
-2.09318721265e-19
-7.51356900781e-20
-5.91999648703e-19
-2.30481231858e-19
-1.61663776606e-18
-6.80016951282e-19