/*--------------------------------*- C++ -*----------------------------------*\
  =========                 |
  \\      /  F ield         | OpenFOAM: The Open Source CFD Toolbox
   \\    /   O peration     | Website:  https://openfoam.org
    \\  /    A nd           | Version:  dev
     \\/     M anipulation  |
\*---------------------------------------------------------------------------*/
FoamFile
{
    version     2.0;
    format      ascii;
    class       volScalarField;
    location    "0.3";
    object      edc::YStar_CO;
}
// * * * * * * * * * * * * * * * * * * * * * * * * * * * * * * * * * * * * * //

dimensions      [0 0 0 0 0 0 0];

internalField   nonuniform List<scalar> 
1629
(
6.25117252279e-18
5.96309345623e-18
4.8556156662e-18
8.60111571701e-16
1.18308208812e-15
2.04946276973e-15
6.39904998558e-14
1.35691374894e-13
4.95513825535e-13
3.54546335432e-12
1.13086326224e-11
7.93164868048e-11
1.36508023985e-10
4.55436406619e-10
2.58609125248e-09
5.19428758617e-09
1.88622789454e-08
9.6892178671e-08
1.52180666065e-07
5.61312054397e-07
2.60290300524e-06
2.68360688084e-06
9.46887411279e-06
4.1064189169e-05
1.28521384538e-05
3.53635333719e-05
0.000115148237419
3.79290817441e-05
8.291057063e-05
0.000212641336446
8.42650661202e-05
0.000152071365232
0.000321536109652
0.000155758229376
0.000242648498869
0.000442628585202
0.000260163671862
0.000367691337576
0.000613588079152
0.000422938658945
0.000568046613739
0.000916804754853
0.000688920918364
0.000898614446152
0.00141747849129
0.00109893939507
0.00138961489554
0.00209895172752
0.00167023634003
0.00203847662594
0.00290968429837
0.00240088764892
0.00283202188506
0.00382358334743
0.00328512701502
0.00376473460744
0.00484696687344
0.00432275710033
0.004841605618
0.00599982545923
0.00551540543571
0.0060664461692
0.00728782853107
0.0068580984843
0.0074317865712
0.00869447627707
0.00834008165026
0.00892495861679
0.0102033533534
0.00994978104134
0.0105355432038
0.0118088182494
0.0116763255284
0.0122549375703
0.0135080725763
0.0135084017166
0.0140731255799
0.0152931654769
0.0154337904425
0.0159784734098
0.0171529281885
0.0174394340608
0.0179588730332
0.0190773235809
0.0195138034644
0.0200048711883
0.0210617693375
0.0216481062149
0.0221098224487
0.0231041379763
0.023835017383
0.0242674038852
0.0251996015367
0.0260662378166
0.0264693304415
0.0273393092266
0.0283280080132
0.0287013965432
0.029507933037
0.030600339812
0.0309434873589
0.0316852281485
0.032864828375
0.0331780371813
0.0338556702334
0.0351135066205
0.0353985776491
0.0360161228364
0.0373481180452
0.037607898635
0.0381715364495
0.0395719000098
0.0398092405657
0.0403249767224
0.0417814557142
0.0419984124914
0.0424704288644
0.0439649988491
0.0441627351617
0.0445932949522
0.0461071646441
0.0462864572845
0.0466770844592
0.0481959481918
0.0483578089736
0.0487106514877
0.0502287267578
0.0503747815678
0.0506933935755
0.052214140991
0.0523465740197
0.052635731896
0.054168328353
0.0542894433983
0.0545541445142
0.056107681759
0.0562193812543
0.056463700591
0.058041701553
0.0581451448103
0.0583715110635
0.0599688544407
0.0600643921539
0.0602734722248
0.0618757253278
0.0619630385422
0.0621540573798
0.063737219524
0.0638155202689
0.063986704037
0.0655151394795
0.0655833633303
0.0657323621709
0.0671554643791
0.0672125132245
0.067336940216
0.068588958137
0.0686340152551
0.0687321312714
0.0697424607533
0.0697752874207
0.0698466233861
0.070563887231
0.0705850552105
0.0706309015769
0.0710468007367
0.0710577515868
0.0710812828552
0.0712354786089
0.0712382758669
0.0712440165348
0.0711950957188
0.0711915821136
0.071183536663
0.070929391205
0.0709193299702
0.0708968665911
0.0703941384847
0.0703762841965
0.0703366192611
0.0694344700556
0.0694056916656
0.0693418844519
0.0677934621534
0.0677492443258
0.0676513272663
0.0649541943957
0.0648837416154
0.0647276543572
4.42866679957e-10
1.05565730848e-08
3.38141822271e-07
8.75313104935e-06
0.000147431938026
0.000317229017888
0.000477503978717
0.00061543717392
0.000758481066019
0.00101201928251
0.00153164583862
0.00234953343558
0.00331562473279
0.0043154947461
0.00534839396152
0.00646244896463
0.00770059070905
0.0090595346698
0.0105017562213
0.0120092856072
0.0135893050891
0.0152484488713
0.0169793172705
0.018769427281
0.0206117657665
0.0225095729154
0.0244666598839
0.0264785988551
0.0285343098142
0.0306165124413
0.0327052487592
0.0347884748914
0.0368677995872
0.0389507353884
0.0410396031342
0.0431256322066
0.045191638613
0.0472203526903
0.0492017505135
0.0511373346349
0.0530392277896
0.0549241042094
0.0568056229309
0.0586885331287
0.0605662817065
0.0624213828301
0.0642259463775
0.0659401927747
0.0675100711244
0.0688682573904
0.0699452216231
0.0706938695217
0.0711131157336
0.0712510649985
0.0711713307871
0.0708642265549
0.0702795089415
0.069250347554
0.0675111829886
0.0645041778926
2.61752793574e-14
1.29827764163e-13
3.18613285948e-13
4.65428774161e-13
3.89409162438e-13
2.09154214197e-13
7.9203911469e-14
2.24720065809e-14
5.01612133261e-15
9.05717965844e-16
1.34184920333e-16
1.64749236101e-17
1.68973460446e-18
1.4585766385e-19
1.06836116429e-20
6.70876346436e-22
3.66475513075e-23
1.77269027983e-24
7.72061361092e-26
1.7688691041e-27
4.57732451874e-13
2.15381801569e-12
6.24281486659e-12
1.00791353526e-11
7.90191504534e-12
3.75621201292e-12
1.23758830971e-12
3.05647653147e-13
6.00579997604e-14
9.63634725588e-15
1.28044368241e-15
1.42406638939e-16
1.33744310961e-17
1.06973611766e-18
7.35636279977e-20
4.40257054995e-21
2.33437722056e-22
1.1208524486e-23
4.84439788715e-25
1.10349057571e-26
8.67196637546e-12
2.17786264903e-11
7.32549952081e-11
1.28957954627e-10
9.36628458622e-11
3.96272135124e-11
1.15486738869e-11
2.54738594511e-12
4.52496550061e-13
6.6116418623e-14
8.06420762452e-15
8.30252623413e-16
7.28263114037e-17
5.49154294271e-18
3.59682548429e-19
2.07463161544e-20
1.07546184028e-21
5.16110635898e-23
2.24084086697e-24
4.82316585062e-26
2.94088869285e-10
2.64231951692e-10
8.03316327888e-10
1.32929121563e-09
8.78329463837e-10
3.38014417078e-10
8.99565542417e-11
1.83994050737e-11
3.05152693096e-12
4.192489708e-13
4.84343893529e-14
4.75672564821e-15
4.0071159634e-16
2.92113164405e-17
1.86223825987e-18
1.05347950921e-19
5.40704139626e-21
2.60592662188e-22
1.16066239299e-23
3.01769512804e-25
1.67658702366e-08
8.76836276664e-09
1.27687075791e-08
1.52528917671e-08
8.50303416426e-09
2.90562666304e-09
6.98492718606e-10
1.31448133428e-10
2.02262187514e-11
2.60822168215e-12
2.86063575189e-13
2.69470974466e-14
2.19693279075e-15
1.56211155723e-16
9.78218971667e-18
5.47358253624e-19
2.79991351516e-20
1.35930072993e-21
6.22167113737e-23
2.02549076723e-24
8.75913500759e-07
8.8421186218e-07
3.51073501461e-07
2.0070419653e-07
8.33770628534e-08
2.43652466606e-08
5.22708296434e-09
8.89668962549e-10
1.26034240069e-10
1.52311210413e-11
1.59001037068e-12
1.44394747389e-13
1.14665715851e-14
8.00784471543e-16
4.95900172231e-17
2.76040723828e-18
1.41265609124e-19
6.90572300329e-21
3.20383332952e-22
1.17554135204e-23
3.25911155972e-05
0.00010894996839
1.93781814454e-05
3.96188090099e-06
9.08183652364e-07
1.95017867612e-07
3.53484237632e-08
5.36517989506e-09
7.00324077836e-10
7.99308204113e-11
8.02719415731e-12
7.10792790071e-13
5.55769151638e-14
3.84899931877e-15
2.37624682479e-16
1.32390914766e-17
6.79989094522e-19
3.34011543087e-20
1.54563841025e-21
5.94422527215e-23
0.00075610190514
0.010733521715
0.00102399219761
0.000117549401673
1.15670672589e-05
1.35839845802e-06
1.8879476036e-07
2.56696307047e-08
3.18272937806e-09
3.54623514185e-10
3.52762844527e-11
3.11945276462e-12
2.44756947455e-13
1.70593096393e-14
1.06170410514e-15
5.96654480017e-17
3.08774562839e-18
1.52169445548e-19
6.94529432814e-21
2.66087667588e-22
0.00115909793156
0.00753526451659
0.00124544957471
0.000166082868534
2.16253775145e-05
3.11989599666e-06
5.02164423561e-07
7.73193521688e-08
1.05089412605e-08
1.24948258436e-09
1.30334676576e-10
1.19551281884e-11
9.66286780653e-13
6.90522235274e-14
4.38981180108e-15
2.51057914256e-16
1.31528378853e-17
6.50309414317e-19
2.91002704911e-20
1.07519243922e-21
0.00135259540721
0.00490469975635
0.00137032753337
0.000182624425554
2.98791739092e-05
5.3163325044e-06
1.01089024143e-06
1.81168399934e-07
2.80050673947e-08
3.68414917398e-09
4.15649527895e-10
4.05449166356e-11
3.44215868962e-12
2.55986511148e-13
1.68085163856e-14
9.85889513988e-16
5.25224150242e-17
2.60784879485e-18
1.14157072373e-19
3.99854707952e-21
0.0014286174069
0.00355616764488
0.001590727422
0.000271307318103
5.34057728039e-05
1.01589260551e-05
2.05030970107e-06
4.01900360697e-07
6.86330700575e-08
9.88974942573e-09
1.20670659527e-09
1.25781545621e-10
1.12920688393e-11
8.79988517429e-13
6.00481044085e-14
3.62955523035e-15
1.97240478217e-16
9.84624042578e-18
4.21628422839e-19
1.38985081614e-20
0.0015723035794
0.00395359753794
0.00823944225897
0.00099626855016
0.000169351389379
2.76465390698e-05
4.94786465139e-06
9.46598229437e-07
1.67893034355e-07
2.56416392707e-08
3.32642172471e-09
3.67621262447e-10
3.48135372052e-11
2.84411167263e-12
2.02026669792e-13
1.26082985013e-14
7.00056587089e-16
3.5170377538e-17
1.47509181778e-18
4.56932041818e-20
0.00213841587117
0.0074337502747
0.0439927881943
0.00341498558245
0.000461868879955
6.96945257378e-05
1.17046406672e-05
2.18947708755e-06
3.99253401333e-07
6.40432794136e-08
8.76985150011e-09
1.02251912921e-09
1.01860897843e-10
8.71450858748e-12
6.44419478746e-13
4.15512013535e-14
2.35939598223e-15
1.19425378554e-16
4.91691788483e-18
1.43480478024e-19
0.0034443960638
0.0138901964617
0.0916165944811
0.0076073123457
0.000911240831409
0.000141313280372
2.4383023345e-05
4.6713746948e-06
8.91213691174e-07
1.51356324947e-07
2.19519304925e-08
2.70296694107e-09
2.83298200536e-10
2.53854646505e-11
1.95502792925e-12
1.30328312113e-13
7.57661747486e-15
3.8702542929e-16
1.56929620803e-17
4.33765886289e-19
0.00520698939056
0.018913580256
0.0852937890385
0.0124137951996
0.00189654341836
0.000321247268074
5.41598021465e-05
1.00400289385e-05
1.93572325952e-06
3.4273617227e-07
5.23456647762e-08
6.79410421332e-09
7.49017642641e-10
7.03312583568e-11
5.64607196499e-12
3.89609269877e-13
2.32284457651e-14
1.20035431317e-15
4.8139357257e-17
1.27015772603e-18
0.00676463307334
0.0194883297154
0.0480290095712
0.00529507881394
0.0025337008042
0.000559289533431
0.000104649330473
1.98261143839e-05
3.92005547254e-06
7.27614558392e-07
1.17475867721e-07
1.61218440459e-08
1.87435864241e-09
1.84855232919e-10
1.55031576414e-11
1.10989029486e-12
6.80394669135e-14
3.56887080388e-15
1.42299479364e-16
3.61740597217e-18
0.00800400749476
0.0188877550849
0.0356950580309
0.0225125037952
0.00377754231676
0.000814495363453
0.000165012169856
3.34563477665e-05
7.03763384679e-06
1.4020028411e-06
2.4323225153e-07
3.56879204309e-08
4.4085058174e-09
4.59089505287e-10
4.03885795249e-11
3.01053805772e-12
1.90451998211e-13
1.01825979273e-14
4.06037929218e-16
1.00469694494e-17
0.0091517706587
0.0191795052743
0.037017109116
0.0881215408134
0.00778213169203
0.00122106299135
0.000241263910562
5.14016430096e-05
1.15379067881e-05
2.48242393221e-06
4.6662948986e-07
7.37896633514e-08
9.7490055185e-09
1.07758850554e-09
9.98723928937e-11
7.78086998518e-12
5.09964662559e-13
2.79175748615e-14
1.12012221309e-15
2.72633705792e-17
0.0103857094941
0.0203160030326
0.0398948235703
0.0964881812994
0.0136104903927
0.0019769031709
0.000379710840604
8.13021987045e-05
1.87568031788e-05
4.2564576731e-06
8.56772752725e-07
1.4536369138e-07
2.05213082675e-08
2.40943965906e-09
2.35654268718e-10
1.9234524472e-11
1.31009681077e-12
7.37300477777e-14
2.99347240655e-15
7.24031448668e-17
0.0117728849233
0.0218804337989
0.041852476192
0.0904271339414
0.0197378038243
0.00366581923026
0.000745304241447
0.000151684873306
3.31848670027e-05
7.50695706405e-06
1.56625390143e-06
2.80080408449e-07
4.18471353383e-08
5.19398061365e-09
5.35045912097e-10
4.57542122435e-11
3.24364468008e-12
1.8821420532e-13
7.76999018283e-15
1.88510641506e-16
0.0132445979951
0.0232567138046
0.0412885646409
0.0727842946849
0.00441366554245
0.00440164043449
0.00117380618386
0.000263291650316
5.79478265135e-05
1.31569258104e-05
2.8272659632e-06
5.28925663412e-07
8.31374692375e-08
1.08626228975e-08
1.17574444671e-09
1.05255926777e-10
7.77200951381e-12
4.65970680753e-13
1.96391682978e-14
4.81979306693e-16
0.0146994125488
0.0242011687277
0.0393189350732
0.0574142072171
0.0313635924056
0.00636188769967
0.00162586183208
0.000390465559172
9.07353813533e-05
2.14742674626e-05
4.84996577046e-06
9.5935607292e-07
1.59428203083e-07
2.19718225198e-08
2.5007812583e-09
2.34536597047e-10
1.8060145983e-11
1.12120504366e-12
4.84247367919e-14
1.21140924408e-15
0.0161373942522
0.0250503569651
0.0383855965379
0.055297768152
0.085001561652
0.0114410548425
0.00232329908004
0.000554922771891
0.000134123753852
3.31380557449e-05
7.90042553172e-06
1.66194426141e-06
2.93535173567e-07
4.28320559461e-08
5.13975902244e-09
5.06024064616e-10
4.07191187368e-11
2.62415056393e-12
1.16572825429e-13
2.9937554817e-15
0.017612070042
0.0260637081819
0.0385971557657
0.0564450060777
0.094118136666
0.0182195846695
0.00382350760742
0.000898273982694
0.000211984763132
5.19010606994e-05
1.26769754032e-05
2.7981936545e-06
5.22822255351e-07
8.07057207061e-08
1.02177623405e-08
1.05757050257e-09
8.91042507562e-11
5.97579965167e-12
2.7401606969e-13
7.27113933206e-15
0.0191505775185
0.0272294635761
0.0391452881805
0.0561647836482
0.0863976930684
0.0033130147792
0.00435230585413
0.00128570700167
0.000325307957515
8.03995801272e-05
1.99776420079e-05
4.59067393435e-06
9.03463267108e-07
1.47286980876e-07
1.96716286678e-08
2.14243053773e-09
1.89303596492e-10
1.32417445132e-11
6.28811629734e-13
1.73407999367e-14
0.0207379427043
0.0284178309705
0.0394904865802
0.0543512697914
0.0748621844687
0.00853928901681
0.00498762919983
0.00161968098723
0.000445262369257
0.000115331393187
2.97860564839e-05
7.19521056596e-06
1.49965133383e-06
2.59096451542e-07
3.65967628174e-08
4.20279764127e-09
3.90273223854e-10
2.85413768996e-11
1.40800210435e-12
4.05622901016e-14
0.0223534698445
0.0295700941088
0.0396491203617
0.052329646244
0.066744863623
0.0377814228685
0.00745633787823
0.00205973181899
0.00057468303963
0.000155220764912
4.19648249237e-05
1.07224886017e-05
2.37993013457e-06
4.37851478856e-07
6.56529545457e-08
7.97417730178e-09
7.8022509895e-10
5.98062155431e-11
3.07420193681e-12
9.29463157813e-14
0.0239987054312
0.0307441024871
0.0399854241355
0.0515592146086
0.0658755753336
0.0759972452938
0.0132255626413
0.00290687097613
0.000767347924653
0.000208904438002
5.80153683729e-05
1.55173527592e-05
3.65253712837e-06
7.15123964589e-07
1.1393232505e-07
1.46574757961e-08
1.51375021849e-09
1.21860388029e-10
6.54333246778e-12
2.08442469759e-13
0.0256979838239
0.0320362108104
0.0407379776578
0.0520823997628
0.0679210517944
0.0936813049424
0.02129958388
0.00469226894139
0.00116914701538
0.000303790908968
8.26576511127e-05
2.24714426209e-05
5.52228759547e-06
1.14186021372e-06
1.92622272216e-07
2.62144655291e-08
2.85747230545e-09
2.41779703202e-10
1.35836425177e-11
4.5729927733e-13
0.0274670611596
0.0334611168953
0.041760032426
0.0527944134289
0.0679498335789
0.089631450346
0.00231925927774
0.00510156066328
0.00159065147176
0.00043533554918
0.000118219588473
3.24272253065e-05
8.24400674069e-06
1.78924445263e-06
3.18433705235e-07
4.57539493008e-08
5.25968561862e-09
4.67785430291e-10
2.75232686123e-11
9.81331944349e-13
0.0292974949593
0.0349595401983
0.0428048997709
0.053098598344
0.066164391399
0.081096623604
0.00763487136479
0.00564563267906
0.00195470071929
0.000575028971397
0.000161241988333
4.5336032854e-05
1.19806982442e-05
2.73290628919e-06
5.13294855576e-07
7.78692200476e-08
9.44091372158e-09
8.82835753614e-10
5.44410251935e-11
2.05915900219e-12
0.0311694112098
0.0364753463858
0.0437643535549
0.0530407629705
0.063887080485
0.074046011923
0.0255242747524
0.00754089121452
0.00241342382774
0.000732243650944
0.00021199750491
6.13579223423e-05
1.68906702985e-05
4.05573832637e-06
8.04912411117e-07
1.29045114471e-07
1.65124971554e-08
1.62457946954e-09
1.05085130368e-10
4.22242038593e-12
0.03306062144
0.0379827246316
0.0446659922349
0.0529487633049
0.0622663079418
0.0710170886736
0.0469617824224
0.0114458557875
0.00325636552306
0.000968985987698
0.000281490887001
8.23878881591e-05
2.33855570484e-05
5.88293423166e-06
1.23139380655e-06
2.08503796649e-07
2.81564757616e-08
2.91526318684e-09
1.97911725382e-10
8.45713727729e-12
0.0349536143676
0.0394841558712
0.0455930986238
0.0531027688653
0.0616887227522
0.070854220742
0.065626372828
0.00499331544648
0.00367295780875
0.00123279336494
0.000370553066742
0.000109667131653
3.18851412236e-05
8.36344727348e-06
1.84171544525e-06
3.28941963517e-07
4.68508240386e-08
5.10403545617e-09
3.63739538509e-10
1.65428067731e-11
0.036845974025
0.0410084555466
0.0466381876649
0.0536567214705
0.0621221355911
0.0724487201027
0.0827677588078
0.00158996155933
0.00381191682512
0.00146023437988
0.000465916542386
0.000141550064084
4.23295097333e-05
1.15847595596e-05
2.68484818866e-06
5.06001054692e-07
7.60324129071e-08
8.71740459694e-09
6.52350012121e-10
3.15995328946e-11
0.0387498441544
0.0425880753116
0.0478341009245
0.0545098794151
0.0628500211561
0.0732212705047
0.0845057924145
0.00426728488579
0.0042133772998
0.00168269385016
0.000563918518809
0.000176696220986
5.45081592327e-05
1.55837218595e-05
3.80549835941e-06
7.5769407621e-07
1.20228648992e-07
1.45174126128e-08
1.14142260735e-09
5.89388595249e-11
0.0406769182495
0.0442325005985
0.0491473026817
0.0554814051762
0.0634201121332
0.0728291179117
0.0814107534905
0.0117417075527
0.00533101087232
0.00198327711701
0.000676879713163
0.000217014965915
6.87364443226e-05
2.04649224559e-05
5.25946566312e-06
1.10621211543e-06
1.85416038663e-07
2.35870012527e-08
1.94927257079e-09
1.07382365891e-10
0.0426264325232
0.0459245621846
0.0505170512088
0.0564466837799
0.0637607060462
0.0718978549291
0.0781446571043
0.0217370668903
0.00735414169637
0.00247796145235
0.000830715523407
0.000267607687877
8.59727761697e-05
2.64491973576e-05
7.12544711614e-06
1.58031810583e-06
2.79571424431e-07
3.74533234088e-08
3.25324911671e-09
1.91298427551e-10
0.0445829534026
0.0476313138038
0.0518867501571
0.0573516838373
0.063948606501
0.0709014124373
0.0755743290363
0.0319533411463
0.00426003050515
0.00274165302484
0.000998316378401
0.000328432984943
0.000106664499856
3.37015972105e-05
9.48051188035e-06
2.21283248382e-06
4.12763443112e-07
5.81991428148e-08
5.31235135258e-09
3.33565008767e-10
0.0465238070784
0.0493210248913
0.0532239501289
0.0581994563959
0.064099033116
0.070112705925
0.0738606539737
0.042829005776
0.00146205278559
0.00275503571698
0.00114426254352
0.000393698921616
0.000130084779191
4.21587260431e-05
1.23610044629e-05
3.03360593133e-06
5.96444214632e-07
8.84983750107e-08
8.48931475927e-09
5.69512370416e-10
0.0484306534532
0.0509786569423
0.0545318134269
0.0590420806602
0.064348998194
0.0697153741992
0.0731663701729
0.0538073275769
0.0014048503534
0.00281196360205
0.00127649842841
0.000461043549715
0.000155602805885
5.16912250356e-05
1.57747332086e-05
4.06812292827e-06
8.43014968241e-07
1.31639935413e-07
1.32738312175e-08
9.52106305705e-10
0.0502966059999
0.0526089216761
0.0558401461075
0.0599512882971
0.0648141331482
0.0698161019297
0.0734482348726
0.0637099367043
0.00283839886977
0.00311092022787
0.00142518620759
0.000533560338294
0.000183613978746
6.23326044408e-05
1.97454768658e-05
5.34382065443e-06
1.16656168074e-06
1.91674666005e-07
2.03184737944e-08
1.55932925862e-09
0.0521282105015
0.0542313266832
0.0571883040257
0.060986107993
0.0655458710482
0.0703731310533
0.074361809994
0.0714866002331
0.00532078446983
0.00367418296839
0.00162456793929
0.000618202584019
0.000215482630207
7.43106002644e-05
2.43260724386e-05
6.893187615e-06
1.5835352437e-06
2.73614059656e-07
3.04884769115e-08
2.50466389987e-09
0.0539413360162
0.0558688373686
0.0586037768676
0.0621613146627
0.0664959387953
0.0711706149159
0.0753142872211
0.0758045305984
0.00818291291705
0.00340768972599
0.00180203531391
0.000713361575618
0.000252018817454
8.7822485463e-05
2.95578681112e-05
8.74571661205e-06
2.11150731606e-06
3.83397515972e-07
4.49003085394e-08
3.94994272415e-09
0.0557527519536
0.0575356150658
0.0600882289785
0.0634418520421
0.0675478585389
0.0719582690565
0.0758917147181
0.0771063681376
0.0111855756364
0.00192124208594
0.00181982130589
0.000801734883204
0.000291839724271
0.00010275410977
3.54156817933e-05
1.09144917934e-05
2.7662371305e-06
5.27513574852e-07
6.49242343533e-08
6.11870471625e-09
0.0575726095567
0.0592317311721
0.0616209043704
0.0647692596867
0.0685917996503
0.0726030080582
0.0760795711249
0.0770466373638
0.0141876474282
0.00108719476953
0.00173925218584
0.000873730348766
0.000333147103544
0.00011884716223
4.18272935043e-05
1.33951434015e-05
3.56010780632e-06
7.12632356072e-07
9.21725496372e-08
9.31054748728e-09
0.0594001985727
0.0609436899799
0.063168132889
0.0660838208913
0.0695519800409
0.0730643484554
0.0760014986834
0.0763836662268
0.0169488929848
0.000846467820416
0.00164735621024
0.000929736184389
0.00037513929255
0.000135996265044
4.8737128536e-05
1.61772470251e-05
4.50324303121e-06
9.45613663556e-07
1.28522110969e-07
1.39201685395e-08
0.0612235132344
0.0626482122773
0.0646924072468
0.0673369366506
0.0703916662647
0.0733656945668
0.0757551981298
0.0754680274972
0.0192035739404
0.000894022264816
0.00158812933808
0.000974321552997
0.000417881783599
0.00015431363757
5.61320454519e-05
1.92506509181e-05
5.60439251641e-06
1.23358914255e-06
1.7615731534e-07
2.04614023156e-08
0.0630208267613
0.0643157045192
0.0661565311797
0.0684917246658
0.0710983909433
0.0735438149243
0.0754293490453
0.0744337235791
0.0207286983131
0.00107300698476
0.00153732917131
0.00100913266185
0.000461355265106
0.000173997725966
6.40217718652e-05
2.26007460283e-05
6.86923335024e-06
1.58355860701e-06
2.3755033455e-07
2.95878917771e-08
0.0647614449262
0.0659109395232
0.0675230745212
0.069518880862
0.0716697916134
0.0736256152861
0.0750559558039
0.0732590098519
0.0214802808713
0.00129750937965
0.00137436859344
0.00102124286218
0.000503647371722
0.000195109284179
7.24104059537e-05
2.62021705469e-05
8.29754905396e-06
2.00152794209e-06
3.15336514525e-07
4.20997743066e-08
0.0664041513776
0.0673913748079
0.0687526015764
0.0703933136917
0.0721047287611
0.0736204414227
0.0746232745522
0.0718284963749
0.0214692170808
0.00151512312709
0.0010852004349
0.000993603561905
0.000540415132375
0.000217461076514
8.13011789068e-05
3.0022986177e-05
9.88255419971e-06
2.49181521553e-06
4.12146112445e-07
5.89341653426e-08
0.0678952625053
0.0687062231073
0.0698034414554
0.0710909296829
0.0723939848528
0.0735101157305
0.0740708007291
0.0698687991189
0.0207356373337
0.00165185469181
0.000837069632524
0.000934741913267
0.00056750510602
0.00024068906857
9.07252772537e-05
3.40361299489e-05
1.16125134708e-05
3.05679063433e-06
5.30451684893e-07
8.11424667308e-08
0.0691699161026
0.069797302363
0.070628413331
0.0715742830844
0.0724901660274
0.0731976908596
0.0732032949975
0.066663424965
0.0193578419586
0.00171091948543
0.000677543946659
0.000864444857991
0.00058254606777
0.000264226009616
0.000100749119262
3.82261109187e-05
1.34717481044e-05
3.69653819081e-06
6.72386825583e-07
1.09855749022e-07
0.0701626301097
0.0706074462859
0.0711790456653
0.0717951939763
0.0723252527595
0.0725738777277
0.071877568789
0.0609871762196
0.0174150943016
0.00169350638405
0.000578250164882
0.000797031101321
0.000585274858447
0.00028729357534
0.000111499219079
4.25984114799e-05
1.54418480361e-05
4.40836414299e-06
8.39508623658e-07
1.46239187308e-07
0.0708316184674
0.0711052314266
0.071435723673
0.0717454617829
0.0719085933833
0.0716961141666
0.0702823596805
0.0539598650456
0.0151291756262
0.00160535421495
0.000512955026851
0.000737021881249
0.00057733429244
0.000308900089521
0.000123185392035
4.71908422871e-05
1.75033138952e-05
5.18622382151e-06
1.03255689207e-06
1.91460298838e-07
0.0711814994757
0.0713069881376
0.071430817226
0.0714800858088
0.0713313305117
0.0707110810912
0.0686195295984
0.0463406168318
0.0126770861347
0.00145858368497
0.000467581396724
0.000682808628367
0.000561386653658
0.000327652553053
0.000135965744328
5.20555176728e-05
1.96312408912e-05
6.01876589604e-06
1.25104948444e-06
2.46668186362e-07
0.0712644222606
0.0712730933031
0.071235394871
0.0710820590682
0.0706838868117
0.0696941768872
0.0667503741419
0.0384067378572
0.0102178869626
0.0012732073836
0.000434071878833
0.000632067656561
0.000539408060533
0.000341845682537
0.000149788052117
5.7245839718e-05
2.17926867662e-05
6.88746394752e-06
1.49297592107e-06
3.13032758515e-07
0.0711418822763
0.0710584631255
0.0708894239088
0.0705587207524
0.0699043544559
0.0684512204614
0.0633657755314
0.0305193896602
0.00788955215455
0.0010701802469
0.0004076314057
0.000583006273349
0.000512959362817
0.00035036802529
0.000164324991266
6.28312946293e-05
2.39522153767e-05
7.7671177833e-06
1.75503597819e-06
3.91863004089e-07
0.0707885201988
0.070599012021
0.0702609528324
0.0696634318282
0.068562328362
0.066321265742
0.0529449915637
0.0231104306883
0.00582942203678
0.000871143616348
0.000385322985277
0.000535568756609
0.000483421854545
0.000352869232867
0.000178850982501
6.88837635429e-05
2.60741463486e-05
8.62684864971e-06
2.03324647366e-06
4.84768260303e-07
0.0701481019926
0.0698291392062
0.0692823343036
0.0683553513316
0.0667130352333
0.0631451153512
0.0406652446472
0.0165425435135
0.00411678643594
0.000692337005683
0.000365248575739
0.00049060924171
0.000452896461391
0.000349008138427
0.000192201969836
7.54725525336e-05
2.81313908716e-05
9.43287187366e-06
2.32377756111e-06
5.93775860773e-07
0.0690402566113
0.0685371123115
0.0676896313707
0.0662800619434
0.0638025506024
0.0527914103015
0.0290348587289
0.0111412572692
0.00278157441939
0.00054355427847
0.000345815218361
0.000448259943084
0.000421952566622
0.000338873431438
0.000203779708937
8.27523662121e-05
3.01283384691e-05
1.01543689801e-05
2.6240448269e-06
7.21273933008e-07
0.0671897275899
0.0664249397174
0.0651424579064
0.0629812413399
0.0569187865634
0.0376493348029
0.0191081557524
0.00702627036738
0.00180396909938
0.000427153615162
0.000324691158697
0.000407577036246
0.000390739868755
0.000324437872753
0.000212346818208
9.08784895172e-05
3.21114728045e-05
1.07644783898e-05
2.93184954726e-06
8.70477304154e-07
0.0639890770915
0.0627544677229
0.060591169723
0.0545773243674
0.0400574516108
0.0243530206384
0.0117332909009
0.00426552793241
0.00117079020003
0.000346051046788
0.000297549025855
0.000366911026964
0.000360216920596
0.000308448707282
0.000217021894429
9.97883173873e-05
3.39393112167e-05
1.12035570484e-05
3.23771114961e-06
1.043922187e-06
1.7934090845e-24
3.46188633551e-24
2.29680004033e-24
3.93623754538e-24
6.37472459809e-24
7.65649264832e-24
2.38840567629e-23
2.08395969145e-23
8.55001536308e-23
5.48935969872e-23
2.8378183438e-22
1.44682738884e-22
8.87395498169e-22
3.80209697756e-22
2.65050519724e-21
9.94369455192e-22
7.64574559087e-21
2.59034077488e-21
2.15085406281e-20
6.73846883001e-21
5.94569723905e-20
1.75494750244e-20
1.62309441649e-19
4.58227113276e-20
4.38708706327e-19
1.19969944872e-19
1.17528183233e-18
3.14694703233e-19
3.12102972443e-18
8.2597614989e-19
8.21463709377e-18
2.16630448945e-18
2.14289981712e-17
5.6709983087e-18
5.54049080031e-17
1.48046632288e-17
1.41940472901e-16
3.85069503739e-17
3.59956829647e-16
9.96963213616e-17
9.02363358791e-16
2.56327094145e-16
2.23243540808e-15
6.52553307588e-16
5.44016391069e-15
1.64092623683e-15
1.30330291017e-14
4.06652868627e-15
3.0643176907e-14
9.91187192311e-15
7.06024489192e-14
2.37329227329e-14
1.59266318651e-13
5.57032259879e-14
3.5145569504e-13
1.27959600105e-13
7.58012545727e-13
2.87326937755e-13
1.59676377206e-12
6.30034023867e-13
3.28408703463e-12
1.34826919858e-12
6.5938732331e-12
2.81505626034e-12
1.29244759977e-11
5.73401279997e-12
2.47389082005e-11
1.13970792639e-11
4.62811588824e-11
2.21195502025e-11
8.47004266968e-11
4.19533551858e-11
1.51721966485e-10
7.78084872634e-11
2.66061614815e-10
1.41157932311e-10
4.5696807186e-10
2.50605887244e-10
7.69402852619e-10
4.35722055736e-10
1.27112973108e-09
7.4253875175e-10
2.06162319803e-09
1.24095742677e-09
3.28299718021e-09
2.03431495054e-09
5.13394322621e-09
3.27163493715e-09
7.88707337216e-09
5.16290155333e-09
1.19073640141e-08
7.99631166665e-09
1.76671704791e-08
1.21546267591e-08
2.57544819986e-08
1.81275639162e-08
3.6873332869e-08
2.65184383829e-08
5.18379437552e-08
3.80464296511e-08
7.1562070458e-08
5.3545776419e-08
9.7056532264e-08
7.39711517578e-08
1.29436555164e-07
1.00409974729e-07
1.69972058491e-07
1.3413371099e-07
2.20149803343e-07
1.76638551715e-07
2.81636825508e-07
2.29524135848e-07
3.56344154776e-07
2.94569642181e-07
4.46051902549e-07
3.73183353649e-07
5.52550232992e-07
4.65921215041e-07
6.93542730019e-07
6.0046816328e-07
)
;

boundaryField
{
    inletfuel
    {
        type            calculated;
        value           uniform 0;
    }
    inletair
    {
        type            calculated;
        value           uniform 0;
    }
    outlet
    {
        type            calculated;
        value           uniform 0;
    }
    axis
    {
        type            empty;
    }
    leftside
    {
        type            calculated;
        value           uniform 0;
    }
    burnerwall
    {
        type            calculated;
        value           uniform 0;
    }
    front
    {
        type            wedge;
    }
    back
    {
        type            wedge;
    }
}


// ************************************************************************* //
