/*--------------------------------*- C++ -*----------------------------------*\
  =========                 |
  \\      /  F ield         | OpenFOAM: The Open Source CFD Toolbox
   \\    /   O peration     | Website:  https://openfoam.org
    \\  /    A nd           | Version:  dev
     \\/     M anipulation  |
\*---------------------------------------------------------------------------*/
FoamFile
{
    version     2.0;
    format      ascii;
    class       volScalarField;
    location    "0.3";
    object      edc::R_OH;
}
// * * * * * * * * * * * * * * * * * * * * * * * * * * * * * * * * * * * * * //

dimensions      [1 -3 -1 0 0 0 0];

internalField   nonuniform List<scalar> 
1629
(
-4.52572997469e-19
-5.47942064007e-19
-6.84490126641e-19
-1.02265707404e-16
-1.91581354238e-16
-5.61422005673e-16
-1.07908857776e-14
-3.38808627918e-14
-2.19853144466e-13
-7.26069367895e-13
-3.71162643099e-12
-4.32217210807e-11
-2.81712552421e-11
-1.34235676941e-10
-9.55845637255e-10
-1.38786113299e-09
-7.04554702917e-09
-1.25587490416e-07
-1.17586236597e-07
-1.7388592289e-06
-2.48208409779e-05
-1.0658771348e-05
-0.000123530793833
-0.00176707826632
-1.95473214985e-05
-0.000127509419733
-0.000985296774328
-2.28329337112e-05
-8.35908354597e-05
-0.0003647059623
-2.04255838558e-05
-4.53683016721e-05
-0.00012132703157
-1.65562537415e-05
-3.00765816947e-05
-9.84150363363e-05
-1.78703215208e-05
-4.35934502174e-05
-0.000224938221132
-1.94621359293e-05
-4.53583917812e-05
-0.000195148041895
-1.95331896273e-05
-3.80479682916e-05
-0.000124506617687
-1.89000816477e-05
-3.01255305627e-05
-7.54515401097e-05
-1.9069663447e-05
-2.82952674157e-05
-6.8375505214e-05
-1.81846899113e-05
-2.53021812895e-05
-5.48694914408e-05
-1.56866760952e-05
-2.00983606853e-05
-3.72006557748e-05
-1.25133759134e-05
-1.48803116847e-05
-2.40468052244e-05
-9.67528864588e-06
-1.1106061738e-05
-1.7096201842e-05
-7.82381494647e-06
-9.33833938637e-06
-1.59298641792e-05
-6.45490881684e-06
-7.91985217726e-06
-1.37650937152e-05
-5.17343096302e-06
-6.28679760803e-06
-1.0344140854e-05
-4.00642104429e-06
-4.76185499913e-06
-7.35206513667e-06
-3.12822564051e-06
-3.71132002909e-06
-5.6714589446e-06
-2.65780530519e-06
-3.28695749881e-06
-5.3761978386e-06
-2.43470835848e-06
-3.1258082599e-06
-5.33327247733e-06
-2.19271467257e-06
-2.81953693051e-06
-4.72144431911e-06
-1.87746829996e-06
-2.37426037991e-06
-3.81847851374e-06
-1.60520130155e-06
-2.00928119472e-06
-3.15574856719e-06
-1.50518019681e-06
-1.89991792735e-06
-3.0113021138e-06
-1.63040859715e-06
-2.08891033989e-06
-3.36815840022e-06
-1.88464890054e-06
-2.41458321186e-06
-3.86491241842e-06
-2.02726953631e-06
-2.54891511261e-06
-3.93511908492e-06
-1.99319367512e-06
-2.44771323035e-06
-3.62680702257e-06
-1.9301947831e-06
-2.33233649083e-06
-3.36333751239e-06
-2.01883996669e-06
-2.42365393111e-06
-3.45878460453e-06
-2.35302543746e-06
-2.81521145753e-06
-3.99271225372e-06
-2.93467362927e-06
-3.48874937061e-06
-4.88969396988e-06
-3.69676222772e-06
-4.35105229864e-06
-5.98963162249e-06
-4.55220332801e-06
-5.29606455273e-06
-7.1391927201e-06
-5.44652077695e-06
-6.26236257045e-06
-8.26341548188e-06
-6.43067710121e-06
-7.31431027593e-06
-9.46193140215e-06
-7.7272118008e-06
-8.70876089394e-06
-1.10759430863e-05
-9.674171574e-06
-1.08170402451e-05
-1.35540368285e-05
-1.266163018e-05
-1.40516839255e-05
-1.73577192951e-05
-1.70806543652e-05
-1.88114519643e-05
-2.28990219921e-05
-2.33301860981e-05
-2.54965244727e-05
-3.05792038035e-05
-3.18710365802e-05
-3.45745177684e-05
-4.08816219173e-05
-4.33634867848e-05
-4.67337308523e-05
-5.45626969531e-05
-5.91019702178e-05
-6.33544374571e-05
-7.32052014102e-05
-8.24061245738e-05
-8.80065284299e-05
-0.000100965152505
-0.000120459209185
-0.000128355752936
-0.000146621595874
-0.000183203657052
-0.00019477501699
-0.000221506045078
-0.000282758081483
-0.000299712544169
-0.000338772885907
-0.000435898853098
-0.000460331313109
-0.000516433684633
-0.000678246339101
-0.000713560837056
-0.000794358927044
-0.00113903079632
-0.00119551072302
-0.00132453311738
-0.00194692623629
-0.00203626692195
-0.00223970655846
-0.00355546747321
-0.0037085368665
-0.00405654560697
-0.0067578156892
-0.0070284487288
-0.00764296264463
-0.014038595571
-0.0145836114596
-0.015821324243
-3.14473064796e-10
-5.34773489565e-09
-1.49488868854e-06
-0.000198876168426
-0.020764991455
-0.00699260111104
-0.0016751884341
-0.000384205266153
-0.000518789261313
-0.00143825403584
-0.000951047346487
-0.000478345259333
-0.000232912158441
-0.000225889788305
-0.000160525092768
-9.12133783183e-05
-5.15003045455e-05
-3.61509327149e-05
-3.7870765973e-05
-3.13131933702e-05
-2.12585946483e-05
-1.38760504792e-05
-1.06181320992e-05
-1.07336992383e-05
-1.07428549996e-05
-9.06700657821e-06
-6.93085755335e-06
-5.56337478112e-06
-5.33975238679e-06
-6.02135544624e-06
-6.78856100214e-06
-6.61129499224e-06
-5.82202711844e-06
-5.25096697025e-06
-5.34801464365e-06
-6.12929925011e-06
-7.40105431368e-06
-8.8797478933e-06
-1.03350395576e-05
-1.16765989762e-05
-1.30715638468e-05
-1.50057362591e-05
-1.80473185471e-05
-2.27253924781e-05
-2.94620441744e-05
-3.86533467795e-05
-5.0808860052e-05
-6.67963175668e-05
-8.85218093526e-05
-0.00012106304286
-0.000174910747248
-0.000262780904395
-0.000398781184301
-0.000602089958377
-0.000916975008839
-0.00151975284475
-0.00254576354501
-0.00457861262029
-0.00856239201174
-0.0176728585955
2.7170669875e-18
4.1476910797e-18
1.05368336062e-17
1.60757308658e-17
1.23562203308e-17
5.78109798303e-18
1.89094698457e-18
4.68577475138e-19
9.28768230568e-20
1.51395758596e-20
2.05420350228e-21
2.33741833129e-22
2.24320938144e-23
1.82569764493e-24
1.26832907574e-25
7.58673016933e-27
3.95886497418e-28
1.83140248218e-29
7.75679535749e-31
3.24308559457e-32
-3.94449914186e-15
-4.05500780611e-15
-2.74886356007e-15
-9.31926454e-16
-1.58311097532e-17
6.7006369955e-17
2.45915795673e-17
5.57179277621e-18
9.78818439534e-19
1.41801141084e-19
1.7271681496e-20
1.78460113622e-21
1.57388001217e-22
1.19187814822e-23
7.80779737845e-25
4.46990982216e-26
2.27261753166e-27
1.04682555361e-28
4.45423801816e-30
1.84725421305e-31
-3.30722237375e-12
-6.2439010833e-13
-3.95709570696e-13
-1.28866089909e-13
-1.9292860734e-14
-1.29034980598e-15
8.14052603377e-17
3.62778646408e-17
6.42999366903e-18
8.65335642673e-19
9.71838008206e-20
9.31797852955e-21
7.6920632404e-22
5.50341862855e-23
3.44069866936e-24
1.90208996439e-25
9.47285064922e-27
4.37101304498e-28
1.88361362515e-29
7.3485139875e-31
-8.17037456511e-10
-3.67836555329e-10
-4.01517210422e-11
-7.32943491226e-12
-1.17387625569e-12
-1.17577635598e-13
-5.90215150122e-15
-6.79439789342e-18
3.34943462083e-17
4.94340831358e-18
5.3803413222e-19
4.94557682326e-20
3.93012188816e-21
2.72284519135e-22
1.65900265186e-23
9.00514284567e-25
4.44615607607e-26
2.06501723922e-27
9.20405151975e-29
4.14989340617e-30
-2.79216466246e-08
-1.81870544389e-08
-2.10976374724e-09
-3.5808802484e-10
-7.35252665421e-11
-7.51236957692e-12
-3.91547036757e-13
-1.19147456612e-14
-6.28790312803e-17
2.3948321474e-17
2.8774608635e-18
2.59172208134e-19
2.00722557939e-20
1.36276071368e-21
8.18637500321e-23
4.40876408198e-24
2.17545127317e-25
1.02109965814e-26
4.72330167855e-28
2.57893169779e-29
-6.04625248043e-06
-1.04986848383e-05
-3.7849883073e-07
-3.54247833564e-08
-5.52758860023e-09
-4.71681052386e-10
-2.14276957665e-11
-5.78196797233e-13
-1.00225296819e-14
-6.64565696927e-18
1.31922509357e-17
1.26591154221e-18
9.7070225704e-20
6.52268730713e-21
3.89727104686e-22
2.09791005338e-23
1.03983365857e-24
4.93520321127e-26
2.33920390205e-27
1.40060911787e-28
-0.00149662280249
-0.0277599725053
-0.000495463119853
-1.64344263965e-05
-5.28258172063e-07
-2.61057462935e-08
-8.84738658944e-10
-2.03005696705e-11
-3.16096158376e-13
-3.3272516305e-15
2.85819095403e-17
5.43712141615e-18
4.31545958062e-19
2.9106038678e-20
1.74680055287e-21
9.46774297318e-23
4.73319622655e-24
2.26840854431e-25
1.08554603574e-26
6.66980750525e-28
-0.434021697347
1.70708698982
-0.235556009924
-0.00495202446278
-4.76695599384e-05
-8.11728142664e-07
-2.11913752367e-08
-4.0490705234e-10
-5.91700717933e-12
-6.70831201532e-14
-3.93188129551e-16
1.77607366024e-17
1.71488093299e-18
1.1904533024e-19
7.2681191622e-21
4.00049129267e-22
2.02627023399e-23
9.79594658614e-25
4.68736194565e-26
2.82584012979e-27
-0.0673609813602
-0.796700499261
-0.0385794441351
-0.00150280878063
-5.75924341431e-05
-1.6994475243e-06
-7.69855363483e-08
-2.40056736686e-09
-4.77708785692e-11
-6.60564260707e-13
-6.42328131481e-15
1.83025667339e-17
5.89671419688e-18
4.42460556471e-19
2.79059292356e-20
1.57423896885e-21
8.11827162631e-23
3.95972706941e-24
1.88582166273e-25
1.08611148575e-26
-0.00871171932524
-0.0806099412965
-0.0055157611027
-0.000362151623518
-4.05479605126e-05
-2.1849227077e-06
-1.54898967797e-07
-7.83508943757e-09
-2.27551726048e-10
-4.27286228881e-12
-5.43440957521e-14
-3.0570367024e-16
1.65067340467e-17
1.49783373344e-18
9.92677293873e-20
5.78418599629e-21
3.04947005154e-22
1.50159819197e-23
7.10909984085e-25
3.86640657147e-26
-0.00121735658296
-0.00648760779375
-0.0135133800908
-0.000369752727126
-4.16122383854e-05
-3.31239651709e-06
-3.014436723e-07
-2.09665086507e-08
-8.68394330333e-10
-2.16000571085e-11
-3.42832181689e-13
-3.3051616618e-15
2.90015850759e-17
4.66606013856e-18
3.31907988905e-19
2.00563506683e-20
1.08249638649e-21
5.37958759129e-23
2.53286368892e-24
1.29820958996e-25
-0.00440156368794
-0.223625833782
0.652340973986
-0.0973067683585
-0.00286888612144
-5.05982830678e-05
-1.5870760896e-06
-8.68144375933e-08
-3.71192774688e-09
-9.80596562727e-11
-1.87937051306e-12
-2.33140362029e-14
-5.32637460586e-17
1.34859331634e-17
1.06609608205e-18
6.6725230999e-20
3.67605999853e-21
1.83916995723e-22
8.61798261836e-24
4.17423514254e-25
-0.0122793698058
-0.486570951928
1.18183516535
-0.17697803504
-0.00463323605456
-0.00013761430876
-3.76048839363e-06
-2.38069385392e-07
-1.17343898635e-08
-4.1901359444e-10
-9.11247660953e-12
-1.33130475611e-13
-9.16702799814e-16
3.5603080803e-17
3.35611366015e-18
2.16468954434e-19
1.20882431951e-20
6.06076144982e-22
2.82832473469e-23
1.30013739139e-24
-0.00598449284802
-0.124665889748
-0.520672426546
-0.0512471188363
-0.00175524269235
-0.00011040458508
-4.91463724875e-06
-4.15286387263e-07
-3.04826085657e-08
-1.32009561127e-09
-3.63279783525e-11
-6.17269499393e-13
-6.16241405419e-15
7.78822223125e-17
1.03661417247e-17
6.8825996058e-19
3.8690950098e-20
1.93579094503e-21
9.00888221527e-23
3.94449019748e-24
-0.00246155440269
-0.0364624350672
-0.0855161064018
-0.020080898446
-0.000791066658441
-6.20599099679e-05
-5.83944450326e-06
-6.30147191459e-07
-6.07607871605e-08
-3.52358781728e-09
-1.21943334629e-10
-2.49772764823e-12
-3.21657414487e-14
7.67294655816e-17
3.04158187801e-17
2.11405742925e-18
1.19700073241e-19
5.97800697884e-21
2.78400052344e-22
1.16377680704e-23
-0.00102597125735
-0.012078403846
-0.14433080242
0.342723295383
-0.0492332433284
-0.00141544912401
-3.16562241514e-05
-1.37524625603e-06
-1.25724553086e-07
-8.19915325994e-09
-3.42588269266e-10
-8.99243355249e-12
-1.40888938687e-13
-5.01804222625e-16
8.02717574623e-17
6.11358115831e-18
3.52522204984e-19
1.76931277649e-20
8.29578831338e-22
3.31745175128e-23
-0.0011630464712
-0.0173375545968
-0.3610897814
0.952740427922
-0.125955963154
-0.00303603020205
-8.32758937506e-05
-2.60061773846e-06
-2.31835720528e-07
-1.8913859932e-08
-9.53518572991e-10
-2.8629270513e-11
-5.37751549767e-13
-4.26285327164e-15
1.7851234922e-16
1.63034870329e-17
9.75120508445e-19
4.97311177092e-20
2.36563003572e-21
9.07625482788e-23
-0.000707094192405
-0.00781032568398
-0.140621847578
-0.287111731937
-0.0500609416725
-0.00141601576433
-7.00410404751e-05
-3.06391134513e-06
-3.37380059636e-07
-3.18697641355e-08
-2.11190060661e-09
-8.07700484945e-11
-1.73082320664e-12
-2.13246229455e-14
2.93880280276e-16
3.97201205111e-17
2.52036702038e-18
1.32146703094e-19
6.42505332766e-21
2.37550629931e-22
-0.00033587609812
-0.00286173351271
-0.0478421942587
-0.0724481913931
-0.0181903571296
-0.000546604156749
-3.50700768088e-05
-3.05494729301e-06
-4.17950416624e-07
-5.32616337684e-08
-4.24888066468e-09
-2.05508278567e-10
-5.32199886258e-12
-8.49627388523e-14
1.41901702607e-16
8.81050342714e-17
6.10308960649e-18
3.32326900679e-19
1.66145250812e-20
5.95302554688e-22
-0.000172942033969
-0.0013822590256
-0.0219011471158
-0.00368963171015
-0.0178585227148
-0.000572767207624
-2.96254337248e-05
-3.49742039147e-06
-5.27173463993e-07
-8.23373973184e-08
-8.2199425302e-09
-4.17381651397e-10
-1.51096573653e-11
-2.91008543943e-13
-1.49492185692e-15
1.7617305151e-16
1.39326438942e-17
7.94747660626e-19
4.1029431604e-20
1.43380649838e-21
-0.000127539295423
-0.00111526934915
-0.0168944522567
-0.131825323909
0.480083471155
-0.0725522158851
-0.00226164023452
-5.7498741071e-05
-1.68320005742e-06
-1.64307882326e-07
-1.66650987231e-08
-1.03288383479e-09
-4.03896126658e-11
-9.078272678e-13
-8.87981919874e-15
3.04358499274e-16
3.01148703606e-17
1.8169058064e-18
9.71667498864e-20
3.33424694507e-21
-0.000148245216554
-0.00138358345978
-0.0196716404974
-0.273613788982
0.657767333466
-0.115368039169
-0.00321150444797
-0.000110976051695
-2.97535581338e-06
-2.84342703331e-07
-3.11022296602e-08
-2.38454923491e-09
-1.01673639604e-10
-2.58404402738e-12
-3.53775279954e-14
3.83544497756e-16
6.14915337996e-17
3.98364073184e-18
2.21415653349e-19
7.51317579431e-21
-0.00011069496851
-0.000843988725249
-0.00867989618534
-0.109302054527
-0.230100708848
-0.0443204462789
-0.00143596859418
-6.67974266955e-05
-3.38601732544e-06
-3.78472360858e-07
-5.04614393082e-08
-4.37691904955e-09
-2.39668198361e-10
-6.55877379042e-12
-1.20832039799e-13
-1.33212791987e-17
1.1736214584e-16
8.38541376051e-18
4.86464331995e-19
1.64403009715e-20
-6.61182369704e-05
-0.000419203293658
-0.00342395687087
-0.0418355198238
-0.042716074607
-0.0198662117513
-0.00076061485785
-4.04012391047e-05
-3.51585653693e-06
-4.44801834611e-07
-7.34366477835e-08
-7.66050768577e-09
-5.25110960274e-10
-1.70539573427e-11
-3.67503091239e-13
-2.36801652074e-15
2.04537805985e-16
1.6945868321e-17
1.03202747477e-18
3.4982369664e-20
-3.97888077141e-05
-0.000233515385529
-0.00180817074865
-0.0251395954164
-0.0360861011111
0.17428652759
-0.0279449185038
-0.000866470016923
-2.28385635706e-05
-9.27040411213e-07
-1.16718405158e-07
-1.33131791246e-08
-8.98650381856e-10
-4.2040543072e-11
-1.03054306962e-12
-1.11304303015e-14
3.07054498591e-16
3.28476367365e-17
2.11745748546e-18
7.24738205546e-20
-3.09780302705e-05
-0.000191774996137
-0.00157566723994
-0.0229800207971
-0.152527783647
0.467541570089
-0.0770447178552
-0.00219892443169
-6.80815731408e-05
-1.7902098196e-06
-1.86598037731e-07
-2.37821575263e-08
-1.72555426324e-09
-9.73502544899e-11
-2.70076108117e-12
-3.84836192573e-14
3.19536998515e-16
6.08225163225e-17
4.20676221017e-18
1.46334426486e-19
-3.33047400004e-05
-0.000216665976735
-0.0017875890787
-0.0230738296001
-0.2331684616
0.450180536516
-0.0993761006475
-0.00252833371458
-7.88682623369e-05
-2.47388573793e-06
-2.56654400434e-07
-3.62616048767e-08
-3.66518715316e-09
-2.08701780358e-10
-6.64063055565e-12
-1.15230802369e-13
-1.42656459373e-16
1.06428885677e-16
8.09410594512e-18
2.88091453698e-19
-3.24904839639e-05
-0.000194595190903
-0.00140989494599
-0.0145410072676
-0.148114745944
0.00598637998976
-0.0641581844523
-0.0017494043767
-5.96999121119e-05
-2.72976917909e-06
-3.06146317451e-07
-5.03569517829e-08
-6.36579105451e-09
-4.17831390551e-10
-1.31522665162e-11
-3.15865688121e-13
-2.2330543169e-15
1.71876185217e-16
1.50689703907e-17
5.52970640275e-19
-2.53558750841e-05
-0.000132393561087
-0.000809458292199
-0.00657101996617
-0.0586624744853
-0.0764098491492
-0.02967844756
-0.00111993716728
-4.45113230661e-05
-2.86312832898e-06
-3.37163263632e-07
-6.34546843417e-08
-8.78581621897e-09
-7.83715512797e-10
-2.81269575147e-11
-8.07854152638e-13
-9.06898480168e-15
2.42051481138e-16
2.70955404792e-17
1.03468735229e-18
-1.80087729196e-05
-8.46174891708e-05
-0.000467421503976
-0.00338176264136
-0.0304037410044
-0.0497161516793
0.187348420283
-0.0297738199635
-0.000859679709741
-2.19673043284e-05
-7.54082932777e-07
-9.48633056827e-08
-1.32547710948e-08
-1.37152460805e-09
-6.10678246946e-11
-1.95078367761e-12
-2.84643167131e-14
2.44751847724e-16
4.68967203665e-17
1.88737095587e-18
-1.39875325406e-05
-6.40007637829e-05
-0.000353691504208
-0.00256814352134
-0.0267503282823
-0.121533851076
0.370547023859
-0.0688247535025
-0.00191830327553
-5.8052606136e-05
-1.41068829993e-06
-1.43811666878e-07
-2.06689030216e-08
-2.06188191489e-09
-1.27301079951e-10
-4.4822026208e-12
-7.87579578988e-14
-5.2353281998e-17
7.75797715772e-17
3.35558485303e-18
-1.34917545237e-05
-6.29049720223e-05
-0.000355254367926
-0.00256934538791
-0.0285635907524
-0.203234648651
0.434714854697
-0.0986467331721
-0.00262332932988
-7.5223814181e-05
-2.14646991142e-06
-2.00727586681e-07
-3.01605829268e-08
-2.84497255483e-09
-2.51695248841e-10
-9.7921918861e-12
-2.0038014791e-13
-1.28732421036e-15
1.20882344555e-16
5.81100400902e-18
-1.52095805747e-05
-7.03889139557e-05
-0.000388598646701
-0.00266826094947
-0.0263807174335
-0.2132814589
0.304203321979
-0.10143347473
-0.00315939365288
-9.41051709513e-05
-3.07718467555e-06
-2.60762105927e-07
-4.12187426401e-08
-4.95467214437e-09
-4.64793280387e-10
-2.0407743996e-11
-4.77533018931e-13
-5.051002147e-15
1.7192012903e-16
9.78989878693e-18
-1.66132365948e-05
-7.27066631257e-05
-0.000374135093202
-0.0023393275072
-0.0199306490591
-0.159657769642
0.124162745434
-0.0305430997609
-0.0092552888593
-0.000258170197417
-6.967512678e-06
-3.88888829795e-07
-5.61380220039e-08
-8.5175198907e-09
-8.00685880192e-10
-3.17023418707e-11
-1.08013080079e-12
-1.50297180849e-14
2.05645241978e-16
1.60117318384e-17
-1.52027474329e-05
-6.02120801165e-05
-0.000276078790361
-0.00149533960098
-0.010268558019
-0.0685883498317
-0.102571636098
0.0946637218834
-0.0235348258921
-0.000627281087183
-1.67175592634e-05
-6.20894268025e-07
-7.57227011081e-08
-1.18091371012e-08
-1.31335176763e-09
-5.28138487965e-11
-2.33492738445e-12
-3.92469444749e-14
1.45138152784e-16
2.53252309482e-17
-1.26129064079e-05
-4.58552867759e-05
-0.000193138854271
-0.000955142237254
-0.00576562562489
-0.0360187350321
-0.100387566892
0.242234482688
-0.0504318762048
-0.00127665571636
-3.41431512427e-05
-9.22159460086e-07
-9.99050000949e-08
-1.54933293684e-08
-2.02524386854e-09
-9.65380606467e-11
-4.80818090449e-12
-9.40887268431e-14
-2.06690059467e-16
3.84665578321e-17
-1.10063282311e-05
-3.85946380182e-05
-0.000158945876298
-0.000774993900682
-0.00458335664188
-0.0320634697313
-0.143656654509
0.352801922493
-0.0823436051122
-0.00213519515765
-5.29795006923e-05
-1.36570400559e-06
-1.28544108479e-07
-2.02863325609e-08
-2.8880917801e-09
-1.75857088471e-10
-9.46483862463e-12
-2.11061254582e-13
-1.30596744001e-15
5.53838611433e-17
-1.10991626706e-05
-3.86679005985e-05
-0.000158863469486
-0.000769511925065
-0.00446706084182
-0.0338381695082
-0.188073662854
0.37724138303
-0.106775419348
-0.00319929076868
-7.92486121595e-05
-2.07975355768e-06
-1.64619992625e-07
-2.60878777682e-08
-3.70388727342e-09
-3.06310252786e-10
-1.78820550234e-11
-4.47948190545e-13
-4.13900626468e-15
7.35507896868e-17
-1.25967306909e-05
-4.31757323824e-05
-0.000173554722372
-0.000813863659273
-0.0045111732399
-0.0337483015032
-0.202940345603
0.341780319416
-0.0919804656481
-0.00726065303262
-0.000173101395697
-4.07998980457e-06
-2.29789494362e-07
-3.28955566118e-08
-4.62117418511e-09
-5.08757565079e-10
-3.21966088283e-11
-9.04956116115e-13
-1.0718451555e-14
8.40139386426e-17
-1.4899563641e-05
-4.93202313281e-05
-0.000190396782927
-0.000849613476723
-0.00442900701143
-0.0302939869248
-0.188243414421
0.260631917258
-0.0447755619927
-0.0156685397106
-0.000366620160175
-8.39750326961e-06
-3.37005698287e-07
-4.22561304103e-08
-6.0263797652e-09
-8.04494558993e-10
-5.56749691786e-11
-1.74370737909e-12
-2.49020691897e-14
6.2888129322e-17
-1.73508436192e-05
-5.47780977583e-05
-0.000200786575374
-0.000843108957425
-0.00408248061425
-0.025219893861
-0.155584083052
0.153794772186
0.028835489518
-0.0292128030016
-0.000684261087497
-1.55535739206e-05
-4.74534451855e-07
-5.22541988086e-08
-8.16495281479e-09
-1.14780967604e-09
-8.75172891873e-11
-3.20664474233e-12
-5.36208440732e-14
-4.55267664678e-17
-1.95171096783e-05
-5.84556464613e-05
-0.000202388277582
-0.000794918950043
-0.00355008823321
-0.0196965100937
-0.117097696212
0.0447670145409
0.121524360893
-0.048411356695
-0.0011780641254
-2.5877748559e-05
-6.3222534444e-07
-6.25749559857e-08
-1.00589253655e-08
-1.56471061837e-09
-1.0741739624e-10
-5.6459339458e-12
-1.08646065146e-13
-3.60838791101e-16
-2.1287707152e-05
-6.03817879591e-05
-0.000196876428931
-0.000719873806367
-0.00294666701443
-0.0145896989287
-0.0808784350797
-0.0528126070479
0.205731949669
-0.0697298744179
-0.0018763084641
-3.8476592682e-05
-8.83836811625e-07
-7.41034478497e-08
-1.1957932073e-08
-2.05262088391e-09
-1.35684660343e-10
-9.69148104543e-12
-2.08893464391e-13
-1.12575405547e-15
-2.30389942629e-05
-6.19835247725e-05
-0.00019040330518
-0.000648403607928
-0.00243990086388
-0.010865694321
-0.0555756918031
-0.113009725884
0.263195918634
-0.0857399432061
-0.003397176698
-6.74019192744e-05
-1.40156508874e-06
-9.0031726337e-08
-1.41272543032e-08
-2.55387118219e-09
-1.75393451443e-10
-1.5992906413e-11
-3.82748955399e-13
-2.80924855535e-15
-2.56610435954e-05
-6.58185649627e-05
-0.000191603943664
-0.000614183192707
-0.00217104569475
-0.0090342427008
-0.044904692644
-0.135619798553
0.29659842065
-0.0868174021143
-0.00707752856395
-0.000138230924683
-2.59969186404e-06
-1.17934973119e-07
-1.63324403161e-08
-3.04901135604e-09
-2.29131659878e-10
-2.53549483589e-11
-6.69122567105e-13
-6.2717088654e-15
-3.00158654839e-05
-7.36325791819e-05
-0.00020407337179
-0.000622057055176
-0.00210526986004
-0.00840902726941
-0.0415634287779
-0.150997981756
0.313694855153
-0.0828103590354
-0.0126469960281
-0.000257051739577
-4.66365907598e-06
-1.59046223806e-07
-1.89587842604e-08
-3.55713138232e-09
-2.97984890235e-10
-3.85718525812e-11
-1.11598462901e-12
-1.3008907831e-14
-3.67721474691e-05
-8.63305488773e-05
-0.000228502174408
-0.000667918413796
-0.00219229014464
-0.00851821140258
-0.0403027774733
-0.162456948859
0.319324655069
-0.0717151288499
-0.0195731405101
-0.00049787530261
-8.53928108128e-06
-2.23507351441e-07
-2.22767026403e-08
-4.06980053847e-09
-3.81999355886e-10
-5.62795375707e-11
-1.78206927724e-12
-2.54935543964e-14
-4.63446908674e-05
-0.000104074963419
-0.000263599477866
-0.000742422957342
-0.0023707632459
-0.00893529140415
-0.040216761835
-0.169855364458
0.317842012328
-0.056216109668
-0.0279768608807
-0.000858714614111
-1.71039153371e-05
-3.52835622769e-07
-2.70077067832e-08
-4.63500393522e-09
-4.82413776272e-10
-7.88507081346e-11
-2.74592168643e-12
-4.76229130732e-14
-5.91098667424e-05
-0.000127113869959
-0.000309177528634
-0.000842848982598
-0.00262039535791
-0.00953956518811
-0.0406385993966
-0.173976636948
0.313758357873
-0.0405630123595
-0.0370399804218
-0.00139667291805
-3.41103311176e-05
-6.33214510807e-07
-3.52760249566e-08
-5.34863510676e-09
-6.02615326536e-10
-1.06401598611e-10
-4.06772463971e-12
-8.52267739506e-14
-7.56643408084e-05
-0.000156410709219
-0.000367396444838
-0.000973809905004
-0.00294752940867
-0.0103289284652
-0.0415425588329
-0.175591007513
0.309381157597
-0.0262802722937
-0.0443823989742
-0.00227318925862
-6.67132063396e-05
-1.27532874906e-06
-5.15779298811e-08
-6.35474032032e-09
-7.48868543983e-10
-1.39050016357e-10
-5.80859459827e-12
-1.46505913315e-13
-9.72005566199e-05
-0.000194327042093
-0.000443663345683
-0.00114746503979
-0.00337908553155
-0.0113709370716
-0.043200035334
-0.174151807054
0.30559579467
-0.015025933699
-0.0488939438355
-0.0036872838217
-0.000128075903698
-2.77236779728e-06
-8.30921655019e-08
-8.02377312882e-09
-9.35215632761e-10
-1.77501231144e-10
-8.02378099455e-12
-2.42249146925e-13
-0.000126484268288
-0.000246416816437
-0.00055032935615
-0.0013933074622
-0.0039950883507
-0.0129326741437
-0.0468224736291
-0.166182142771
0.302885125671
-0.00962646518325
-0.0515776662252
-0.00555048134327
-0.000227459863851
-5.78196576233e-06
-1.43686786043e-07
-1.0806383969e-08
-1.19143786602e-09
-2.2380696098e-10
-1.0772723363e-11
-3.85750231817e-13
-0.000170954231963
-0.000327725363155
-0.000722205426453
-0.00180399433613
-0.0050835145208
-0.0160808084893
-0.0573366918082
-0.134783966719
0.29671044522
-0.00871276656069
-0.0528528978208
-0.00768198564617
-0.000370618720292
-1.11896837288e-05
-2.57668902032e-07
-1.53400147879e-08
-1.56943943547e-09
-2.81879533923e-10
-1.41349278416e-11
-5.92459672203e-13
-0.000245374223688
-0.000466123038548
-0.00101918942066
-0.00252377205965
-0.00702951103602
-0.0219445105587
-0.0785148786567
-0.0670225881295
0.270865631537
-0.00961816666359
-0.0525810830195
-0.00980786335487
-0.000558578573015
-2.00007668507e-05
-4.73009362848e-07
-2.2684200552e-08
-2.15445009308e-09
-3.57467910358e-10
-1.82213919344e-11
-8.79502798131e-13
-0.000365595683945
-0.000684650889521
-0.00147242789013
-0.00357036511152
-0.00967406756986
-0.0292030143566
-0.101891331009
-0.000948258690369
0.239965285594
-0.0123184408207
-0.0510729080944
-0.011733378091
-0.000799335908259
-3.3842180987e-05
-9.16261939155e-07
-3.49448042369e-08
-3.07105871434e-09
-4.56860641679e-10
-2.31667818947e-11
-1.26540597335e-12
-0.00054768316439
-0.001002188486
-0.00209679159266
-0.00491619647111
-0.0127798571874
-0.0368000000211
-0.12326154289
0.0628245677979
0.207688273314
-0.0167426798167
-0.0487876884853
-0.0132645320006
-0.00110749301946
-5.54599858899e-05
-1.72394911721e-06
-5.5268402186e-08
-4.55190528727e-09
-5.86531072388e-10
-2.91114274916e-11
-1.77042942374e-12
-0.000813257163728
-0.0014444939438
-0.00291794494604
-0.00656216981757
-0.0162379497974
-0.0444300286836
-0.140212096044
0.125013327005
0.172911500972
-0.0220606321194
-0.0459908363534
-0.0142966638056
-0.00145844263373
-8.63571064692e-05
-3.18055644642e-06
-9.1014612981e-08
-6.58427688586e-09
-7.52213170948e-10
-3.61592603318e-11
-2.4186212036e-12
-0.00121712188217
-0.00209575979049
-0.00408386616674
-0.00881244142856
-0.0208429352626
-0.0549271606876
-0.136581466694
0.17502346808
0.136162411997
-0.027366325608
-0.0428266020261
-0.0147841403594
-0.00182469325247
-0.000128851131068
-5.64389164341e-06
-1.58885312567e-07
-9.13963044804e-09
-9.62210196672e-10
-4.44864567532e-11
-3.24363354359e-12
-0.00199653049945
-0.00338005212181
-0.00647836826822
-0.013797469022
-0.0326022212819
-0.0875306323669
-0.0275821693304
0.186812693691
0.0969130569388
-0.0320766614442
-0.0394572836881
-0.014769555873
-0.00216613746997
-0.000185071808435
-9.58966864063e-06
-2.8553761541e-07
-1.3084435458e-08
-1.22160232958e-09
-5.43409498346e-11
-4.30002725158e-12
-0.00328860470894
-0.00540323400558
-0.0100124605545
-0.0205959488877
-0.0472067481758
-0.116549789722
0.0669728421015
0.173064628707
0.0597247379389
-0.0352796779292
-0.0359174611149
-0.014315179669
-0.0024463364791
-0.000249057336336
-1.52301144655e-05
-5.11804215691e-07
-1.89150218475e-08
-1.52710819889e-09
-6.61216977928e-11
-5.68325893586e-12
-0.00584375583913
-0.0094196794312
-0.0171834058296
-0.0351110831457
-0.0798771247094
-0.0412622292343
0.126300688842
0.138790824904
0.0274206950071
-0.0365921973815
-0.0322283576583
-0.0134896454165
-0.0026364330097
-0.000313629832115
-2.31265973315e-05
-9.06656974451e-07
-2.77904532997e-08
-1.87689311862e-09
-8.05749862413e-11
-7.56230446745e-12
-0.0107897536738
-0.0170481753076
-0.030549611177
-0.0609050534313
-0.0794104967326
0.0582422756018
0.140110583347
0.0937103801622
0.00215020654441
-0.0359635146372
-0.0283706895303
-0.0123483567416
-0.00271815664548
-0.000371671650708
-3.32756201048e-05
-1.61011346585e-06
-4.16898532003e-08
-2.26560841678e-09
-9.88486462542e-11
-1.02823276184e-11
-0.0221658890066
-0.0347125260883
-0.0603128391353
-0.0596680231376
0.0263473303415
0.104588570008
0.11287440171
0.0496401434754
-0.0139538077074
-0.0333771290183
-0.0245855684853
-0.011211847086
-0.00278674120201
-0.000433656193172
-4.65195123709e-05
-2.64860580395e-06
-6.32788057034e-08
-2.60722493666e-09
-1.21071253728e-10
-1.44937454358e-11
2.8450994825e-29
6.06975173011e-29
3.2331847838e-29
6.88030133148e-29
8.19162202307e-29
1.16280650935e-28
2.84463658203e-28
2.96702508952e-28
9.59098324575e-28
7.50340054439e-28
3.02715295387e-27
1.91321330713e-27
9.0492771613e-27
4.87375262451e-27
2.59433365102e-26
1.23451016784e-26
7.21567253895e-26
3.10690884893e-26
1.96707459625e-25
7.78262403308e-26
5.29064536217e-25
1.94478591352e-25
1.40582393622e-24
4.76979480744e-25
3.6800452642e-24
1.15148070044e-24
9.45010780439e-24
2.7767376062e-24
2.37341594274e-23
6.6840691718e-24
5.8257037212e-23
1.60477589686e-23
1.3991379216e-22
3.83968206809e-23
3.29381763329e-22
9.14696269318e-23
7.61082664532e-22
2.16689997148e-22
1.72662044759e-21
5.09849383038e-22
3.84506470641e-21
1.18842340304e-21
8.40216728899e-21
2.73621967031e-21
1.80064627315e-20
6.20860972467e-21
3.78169933989e-20
1.38558638938e-20
7.77631794732e-20
3.03626242777e-20
1.56424512734e-19
6.52623364866e-20
3.07634236429e-19
1.37312323985e-19
5.91157654337e-19
2.82358517156e-19
1.10922100185e-18
5.66719414643e-19
2.03087082558e-18
1.10904920177e-18
3.62563686523e-18
2.11444096908e-18
6.30491302849e-18
3.92451281933e-18
1.0661892785e-17
7.08482628157e-18
1.74828590707e-17
1.24227919592e-17
2.76512916359e-17
2.11034285349e-17
4.17368025876e-17
3.45560254028e-17
5.87995405541e-17
5.39857718924e-17
7.34563657796e-17
7.88024449306e-17
6.92887654799e-17
1.02491724685e-16
4.76429626729e-18
1.02757181931e-16
-2.15349629157e-16
1.94818091041e-17
-7.94498303393e-16
-2.91504715815e-16
-2.14183283519e-15
-1.14940763646e-15
-5.03703252509e-15
-3.21706855299e-15
-1.08928341033e-14
-7.79507384101e-15
-2.21395724985e-14
-1.72991416327e-14
-4.27246580843e-14
-3.59661996157e-14
-7.86688477174e-14
-7.07893145339e-14
-1.38570404781e-13
-1.3260911348e-13
-2.33948756706e-13
-2.37257597084e-13
-3.79365728493e-13
-4.06671679866e-13
-5.92545784023e-13
-6.70274185942e-13
-8.94989476351e-13