/*--------------------------------*- C++ -*----------------------------------*\
  =========                 |
  \\      /  F ield         | OpenFOAM: The Open Source CFD Toolbox
   \\    /   O peration     | Website:  https://openfoam.org
    \\  /    A nd           | Version:  dev
     \\/     M anipulation  |
\*---------------------------------------------------------------------------*/
FoamFile
{
    version     2.0;
    format      ascii;
    class       volScalarField;
    location    "0.3";
    object      edc::R_CO2;
}
// * * * * * * * * * * * * * * * * * * * * * * * * * * * * * * * * * * * * * //

dimensions      [1 -3 -1 0 0 0 0];

internalField   nonuniform List<scalar> 
1629
(
0
0
0
0
0
0
0
3.06189026148e-24
4.74568319995e-23
5.214970495e-22
6.39548397475e-21
4.1413977444e-19
8.14888493102e-19
1.07992046821e-17
3.79721762488e-16
1.24915032949e-15
1.86859139398e-14
6.72975114607e-13
1.28409995583e-12
3.04612066845e-11
1.71946326693e-09
8.20163113469e-10
2.70076804221e-08
1.87443349185e-06
1.19619588714e-08
1.85036515169e-07
4.89435688573e-06
8.59144984155e-08
6.63090472216e-07
7.54075388258e-06
3.8449089445e-07
1.65603801785e-06
9.60281476617e-06
1.18422974772e-06
3.30783698852e-06
1.23992723091e-05
2.87706100265e-06
6.15787573002e-06
1.89378782409e-05
6.04406917977e-06
1.08804517907e-05
2.82332253587e-05
1.1547795767e-05
1.86010410884e-05
4.21866673706e-05
1.98429582668e-05
2.91547255286e-05
5.75620714284e-05
3.01271557261e-05
4.08719659296e-05
7.07991383599e-05
4.04672402151e-05
5.13273741178e-05
7.87525430561e-05
4.90387392374e-05
5.88592524299e-05
8.20476364766e-05
5.52533255682e-05
6.37357351248e-05
8.34910648323e-05
5.98227284164e-05
6.7601483943e-05
8.5789629356e-05
6.34977336231e-05
7.10018951697e-05
8.85373324614e-05
6.60425658354e-05
7.30800374255e-05
8.91251783623e-05
6.68790517281e-05
7.30892715503e-05
8.68806004453e-05
6.60122904547e-05
7.13197435539e-05
8.29549704504e-05
6.41914868784e-05
6.88223400591e-05
7.90315516679e-05
6.24445358126e-05
6.67889260113e-05
7.64456327963e-05
6.17127939754e-05
6.6007453319e-05
7.57694435772e-05
6.25664319139e-05
6.70074543344e-05
7.73734371537e-05
6.57820156794e-05
7.06752295895e-05
8.23878606398e-05
7.2894167395e-05
7.87349283343e-05
9.29762283547e-05
8.68431105476e-05
9.43342857048e-05
0.000112793603891
0.000112408238962
0.000122480144354
0.000147300491791
0.00015633179474
0.00017009905255
0.000203768598829
0.000227740936273
0.000246489659396
0.000291645184197
0.000338369260849
0.00036326680816
0.000422347564901
0.000501020657516
0.000532890205418
0.000607301398127
0.00072489530081
0.000763557431415
0.000852302431812
0.00100723767452
0.00105096827867
0.00114974636517
0.00132764185042
0.0013735659549
0.0014759588099
0.00165606696216
0.00170182784014
0.00180309101937
0.00197586893246
0.0020212541076
0.00212188387757
0.00230145338555
0.00234860706051
0.00245381284208
0.00267465188283
0.00272676973234
0.00284371506241
0.00315104545293
0.00321148464253
0.00334761071696
0.00379340499158
0.00386571617148
0.00402897071742
0.00467483965523
0.00476322640855
0.00496304383331
0.00588412981155
0.0059935394067
0.00624087569579
0.00751876992981
0.00765378075195
0.00795830279463
0.00964336280579
0.00980505328412
0.0101681054387
0.0121970860187
0.0123785250936
0.0127830669053
0.014876664515
0.015059595264
0.0154636162795
0.0170917027739
0.0172486845778
0.0175907852556
0.0181059319939
0.0182085053744
0.0184261682349
0.0173156827479
0.0173410270103
0.0173845005253
0.0143916849792
0.01432042421
0.0141464938332
0.00914398232937
0.00895225407041
0.0085071782267
0.00134341033693
0.000998233005372
0.000207947208091
-0.00934896212593
-0.00989626014228
-0.0111413512744
-0.0229138611369
-0.0237214160511
-0.0255512611619
-0.0393159887202
-0.0404823985493
-0.0431191305966
-0.0606344576056
-0.0623485240247
-0.0662120658915
-0.0952572119017
-0.0978492642026
-0.103655871303
2.22911118636e-17
1.05266119898e-14
2.46778944891e-11
6.53241260549e-08
8.18266597708e-05
7.70351064519e-05
5.08536348757e-05
3.55671786104e-05
3.84391035559e-05
6.35629946268e-05
8.18518361471e-05
0.000108180701021
0.000124508717291
0.000132443896002
0.000128555644965
0.000120289222589
0.000114795174542
0.000115144747929
0.000116682268437
0.000113862946552
0.000107403174239
0.000100075435122
9.42968816422e-05
9.13135611887e-05
9.12188800662e-05
9.43269068977e-05
0.00010215443051
0.000117569935972
0.000144825493796
0.000189831824958
0.000260276865714
0.000365598216328
0.000516606061744
0.000722767949255
0.000986188269754
0.00129493178467
0.00162356746488
0.00194813576985
0.00226694130531
0.00260719214482
0.0030157256245
0.00354882900339
0.00427088187994
0.00525935618639
0.0066070928295
0.00840702730848
0.0106985499814
0.0133670410218
0.0160375671433
0.0180658815371
0.0187145019955
0.0174165739098
0.0138599654869
0.00782278123779
-0.000983063316201
-0.0130003882988
-0.0282680419045
-0.0470231774032
-0.0719094924287
-0.112136974348
2.59967112098e-23
3.33226993944e-22
1.60797410706e-21
3.39152859218e-21
2.43994951036e-21
7.19697455774e-22
1.04543604155e-22
8.46116714736e-24
4.21633442435e-25
1.35136973964e-26
2.79086095491e-28
3.67219344577e-30
1.14756964539e-31
1.43448560178e-32
0
0
0
0
0
0
6.81691729583e-21
9.15303660922e-20
6.13415791422e-19
1.57864511132e-18
1.00806764656e-18
2.33840459012e-19
2.57018377796e-20
1.57209553136e-21
6.04799505441e-23
1.54448875938e-24
2.69955945271e-26
3.06768348551e-28
2.73902241835e-30
0
0
0
0
0
0
0
1.01843211818e-18
5.602312327e-18
8.11554451243e-17
2.55534781776e-16
1.41824154098e-16
2.61717204132e-17
2.24915442632e-18
1.09391134426e-19
3.4248030815e-21
7.220796454e-23
1.05834646466e-24
1.10049466407e-26
8.00626619141e-29
4.54908059636e-31
0
0
0
0
0
0
1.40970152703e-16
1.90440192939e-15
1.17764818628e-14
2.62562535071e-14
1.22376195347e-14
1.91168609035e-15
1.36728832467e-16
5.70225889527e-18
1.55122603885e-19
2.8817302781e-21
3.77301465901e-23
3.55961373957e-25
2.49449834977e-27
1.45030796948e-29
0
0
0
0
0
0
1.89163772792e-13
1.23534161987e-12
3.72688879054e-12
3.56940145091e-12
1.1729072279e-12
1.41456313154e-13
8.15701395614e-15
2.90080306197e-16
6.76094099797e-18
1.10192230407e-19
1.2955417872e-21
1.12232733431e-23
7.30451355237e-26
3.75631269599e-28
1.80599987674e-30
5.64445439215e-32
0
0
0
0
1.00280038678e-09
2.14673766417e-08
3.79103670976e-09
6.3056031241e-10
1.10031223038e-10
9.80978319639e-12
4.60412017786e-13
1.30588119767e-14
2.58695236425e-16
3.68245769378e-18
3.90535205065e-20
3.13205019701e-22
1.92200594478e-24
9.03678732482e-27
3.2378718564e-29
2.2488618297e-31
0
0
0
0
5.78176177173e-06
0.000401949503752
9.82541709663e-06
3.70254919316e-07
1.24693727246e-08
5.94614127444e-10
2.01518227001e-11
4.6873628491e-13
7.66491925463e-15
9.78189425335e-17
9.56189465159e-19
7.27162609739e-21
4.31570275814e-23
2.00853722605e-25
7.73884251505e-28
1.79171647865e-30
0
0
0
0
0.00661976152908
41.2475667131
0.0155486794051
0.000175067987494
1.50494315423e-06
2.23591311301e-08
5.27779592211e-10
9.99726937642e-12
1.49627612416e-13
1.79738761922e-15
1.72309738193e-17
1.30955724153e-19
7.8446246046e-22
3.70945724852e-24
1.41557376783e-26
3.56819795416e-29
0
0
0
0
0.00178313574759
0.0639650599565
0.00603155636824
0.000123635164899
3.01073729452e-06
6.78387828289e-08
2.48658488195e-09
7.03585488863e-11
1.36514344234e-12
1.9156384351e-14
2.09015144683e-16
1.73501913507e-18
1.1144786042e-20
5.58582988691e-23
2.21395831608e-25
7.38911784149e-28
1.77851413401e-30
0
0
0
0.000424204544117
0.00529141914223
0.0012315232269
4.81734858056e-05
3.11801517532e-06
1.18592450399e-07
6.47506771573e-09
2.80369680996e-10
7.60960816676e-12
1.3924966663e-13
1.81771797307e-15
1.74215981142e-17
1.25456239489e-19
6.89019760678e-22
2.93595874332e-24
9.95797954729e-27
2.47926839162e-29
0
0
0
0.000145254834071
0.000723630546663
0.00226615871855
5.60903981461e-05
4.61122875288e-06
2.4790834906e-07
1.6470330611e-08
9.39467941623e-10
3.46570172514e-11
8.11780210933e-13
1.27079940686e-14
1.42865323574e-16
1.17103196355e-18
7.16090145982e-21
3.33558749464e-23
1.21407350592e-25
3.66715488744e-28
0
0
0
0.000209960329253
0.0081174119986
20.5903615299
0.00802506826194
0.000179710505577
3.23686918646e-06
9.44956700227e-08
4.47224206142e-09
1.71959738396e-10
4.30850573592e-12
7.95626063343e-14
1.02641197399e-15
9.49098994338e-18
6.46362211185e-20
3.30049188389e-22
1.29195135693e-24
3.93111947905e-27
1.0735891557e-29
0
0
0.00043628622289
0.019855203205
11.8471773097
0.0449804727937
0.000563219573331
1.37051356018e-05
3.15012321379e-07
1.60207761831e-08
6.81252738055e-10
2.18849225091e-11
4.50194049134e-13
6.5335683696e-15
6.78659859095e-17
5.14473280134e-19
2.88476255e-21
1.22028910864e-23
4.02426850799e-26
9.29614530681e-29
0
0
0.000438080652309
0.0111370915554
0.086334132992
0.0297841968794
0.000411051126598
1.83467808658e-05
6.17056778865e-07
3.89495874363e-08
2.29617057098e-09
8.64063838048e-11
2.16401434859e-12
3.54676734786e-14
4.26430221661e-16
3.61801802152e-18
2.23707783478e-20
1.02621366172e-22
3.55075931697e-25
9.71968343577e-28
2.59279708995e-30
0
0.000476145969922
0.00707273167382
2.2246577198
0.0272152152118
0.000390888355695
1.71123874493e-05
1.10016738959e-06
8.40996072704e-08
6.14062235516e-09
2.94539094521e-10
8.94001641537e-12
1.71580960809e-13
2.35462832552e-15
2.24930636151e-17
1.54251541708e-19
7.70903672027e-22
2.84584047155e-24
7.77390153911e-27
1.59963251455e-29
0
0.000407079744269
0.0030237780285
0.210265896098
15.4682704671
0.0125057577462
0.000320621458477
6.44357184549e-06
2.29097119383e-07
1.60688472383e-08
8.61047902623e-10
3.10753544081e-11
7.34422988144e-13
1.14748991801e-14
1.2397453734e-16
9.48216769946e-19
5.19242879198e-21
2.05955478656e-23
5.99105246999e-26
1.09564694696e-28
0
0.00035491361763
0.00214603534204
0.0648046396701
10.4036157779
0.0374999709048
0.000701822465546
1.77938149075e-05
4.96227093485e-07
3.53538835067e-08
2.35221724751e-09
1.01745451837e-10
2.74441159635e-12
4.94013756966e-14
6.0735518488e-16
5.21188819177e-18
3.14625855015e-20
1.3489215741e-22
4.12691506997e-25
8.99743492676e-28
0
0.000280335011611
0.00120396795811
0.0277607974699
-0.223613083524
0.0295717603296
0.000432967623038
1.79197228035e-05
6.89732106003e-07
6.06105013234e-08
4.68254076295e-09
2.65022870285e-10
8.96123329214e-12
1.81326562477e-13
2.65824133686e-15
2.57415537263e-17
1.72354974543e-19
8.04226381512e-22
2.6245659636e-24
5.44417593484e-27
1.1221721449e-29
0.000223635500313
0.000752516004457
0.0154559705899
0.581591547112
0.0232715362065
0.000224129350297
1.07219129924e-05
8.1133889277e-07
8.8849796663e-08
9.13591247634e-09
6.19961777955e-10
2.61789410542e-11
6.30072177921e-13
1.05218710067e-14
1.15298572527e-16
8.60257579086e-19
4.39371873242e-21
1.53832957353e-23
3.21454938252e-26
0
0.000196930421713
0.000616826529511
0.0111762076787
1.68500673197
0.0359930317571
0.000419700644364
1.27403015403e-05
1.10337698577e-06
1.3484717622e-07
1.65945449002e-08
1.38785192358e-09
6.21045673464e-11
2.01836215307e-12
3.82954557038e-14
4.74450727128e-16
3.9515268634e-18
2.21763151872e-20
8.37425170064e-23
1.86600528068e-25
8.78428350563e-29
0.000192454181904
0.000583339787625
0.00856698310336
0.260400913241
15.0998384127
0.0255899379294
0.000706876584395
1.63869335205e-05
4.46317111401e-07
3.68592779774e-08
3.16245613891e-09
1.73118354288e-10
6.06341422377e-12
1.30061979302e-13
1.8145091066e-15
1.68628086075e-17
1.04227597535e-19
4.2657836012e-22
1.0057228006e-24
5.21024599648e-28
0.000189451259002
0.00054656731225
0.00667485947585
0.128615955993
6.64505626145
0.0535638856815
0.00102177049748
3.22440101682e-05
8.28127412991e-07
6.94248884705e-08
6.55969576624e-09
4.39493387225e-10
1.69608001879e-11
4.04833654781e-13
6.47921492696e-15
6.72146382818e-17
4.58632939922e-19
2.04345835396e-21
5.1468395464e-24
4.46280023459e-27
0.00017448267265
0.000454682915996
0.00449442264819
0.0810434111134
-0.305236579687
0.0398272588843
0.000534848975466
2.0595611778e-05
9.95985834819e-07
1.00410473229e-07
1.15845395936e-08
8.90598383003e-10
4.38001985694e-11
1.13338338465e-12
2.16295412655e-14
2.50732848222e-16
1.89506941676e-18
9.23374099427e-21
2.4974434997e-23
2.23901104501e-26
0.000156116799701
0.000387594847139
0.00335029895283
0.0488300240402
0.827154375239
0.0376299896596
0.000398233979855
1.41805111798e-05
1.10528116709e-06
1.28558645749e-07
1.83853533805e-08
1.69812912578e-09
1.04018949982e-10
3.18275611229e-12
6.75762517632e-14
8.77083688411e-16
7.36786637389e-18
3.94378553733e-20
1.1530946775e-22
1.04596044319e-25
0.000141304207487
0.000358380708246
0.00281257824391
0.0327840262017
-0.0585230455268
9.8673359912
0.0134592805531
0.000355087679899
7.81834798821e-06
2.89832350002e-07
3.15516472455e-08
3.17423873647e-09
1.91356604398e-10
8.38677502203e-12
1.98318608483e-13
2.88387962243e-15
2.7003483974e-17
1.59433225366e-19
5.06987640272e-22
5.08913772778e-25
0.000133052830273
0.000358891197146
0.00255530107841
0.0237648305169
-0.700794312025
7.0841031948
0.0344536288127
0.000902252700128
2.37685151148e-05
5.77589021856e-07
5.34916573411e-08
6.0277286815e-09
4.02273771388e-10
2.06020250004e-11
5.46368430811e-13
8.91886039547e-15
9.33799389671e-17
6.10598599812e-19
2.12098771807e-21
2.30568837138e-24
0.00013182440422
0.000381315980791
0.0024536877178
0.0181777975792
-0.332282322582
3.54026854302
0.0633926254828
0.00103065363225
2.760049078e-05
8.12550957358e-07
7.71602457721e-08
9.68937506309e-09
8.86662417579e-10
4.6594881157e-11
1.41027021126e-12
2.59362991883e-14
3.04771197992e-16
2.21640681884e-18
8.44984750418e-21
1.00724496002e-23
0.000136482238853
0.000416944645313
0.00239539526656
0.0142748109923
-0.0165501624737
0.420653057539
0.0883467153399
0.000735038506387
2.02517923544e-05
8.95879467572e-07
9.57390468524e-08
1.41825904085e-08
1.61187079655e-09
9.79038216649e-11
2.94270718905e-12
7.11828006046e-14
9.40196338422e-16
7.63401377385e-18
3.206416746e-20
4.18999877834e-23
0.000147448090019
0.000466812199715
0.00237228698337
0.0118218060636
0.0856109696683
0.437357946957
0.120318609026
0.000644941587049
1.64237814935e-05
9.50128106124e-07
1.09625175683e-07
1.88912813044e-08
2.34860061888e-09
1.92244334179e-10
6.67173872259e-12
1.85361244558e-13
2.75173783201e-15
2.50020951151e-17
1.16018897377e-19
1.67049912425e-22
0.000167466227642
0.000537458459951
0.00240474417997
0.0103479632731
0.0935385416925
-0.423721074142
8.25220845877
0.0166779512675
0.000399016935998
8.11107044213e-06
2.55503970247e-07
2.93969346539e-08
3.71431196399e-09
3.51209906864e-10
1.50563062286e-11
4.59714690798e-13
7.66196557665e-15
7.8015438869e-17
4.00739562147e-19
6.39896225987e-22
0.000200339818286
0.000632459006939
0.00247284994303
0.00930158704194
0.0780832315514
-1.10804238963
5.5470188115
0.0375750314251
0.000943028296589
2.26604879304e-05
4.9324670644e-07
4.60721943117e-08
6.02287651527e-09
5.52572589336e-10
3.23852973092e-11
1.08756821188e-12
2.0308364314e-14
2.32069616677e-16
1.32176893526e-18
2.34854740697e-21
0.000251137446148
0.000756149458679
0.00257186319891
0.00856742555938
0.061828341003
-1.07251866924
3.78606366886
0.0737148825622
0.00131988937188
3.02546888091e-05
7.64517895534e-07
6.63247909388e-08
9.12464241589e-09
8.01132846301e-10
6.5876763956e-11
2.44702083103e-12
5.12241078711e-14
6.57913036348e-16
4.16173136776e-18
8.2493627115e-21
0.000326629987022
0.000914727218374
0.00270895208263
0.00813838898216
0.0496632330079
-0.770361680893
2.35559456884
0.16153111523
0.00164007124088
3.76038607321e-05
1.08733321859e-06
8.77945410299e-08
1.29482035071e-08
1.44730987585e-09
1.25267587696e-10
5.24787998506e-12
1.23038125558e-13
1.77792762952e-15
1.25083746231e-17
2.77291069606e-20
0.000434905817018
0.00111136355958
0.00287613108332
0.00791357571789
0.0422201553977
-0.470678554081
0.904765202351
3.55817937273
0.00580964831765
0.000127050329149
2.7488949896e-06
1.3825509814e-07
1.83304339586e-08
2.54973518358e-09
2.22701123856e-10
8.41135372404e-12
2.82527020694e-13
4.5819949945e-15
3.59017465065e-17
8.91543069952e-20
0.000584199546859
0.00134189257799
0.00305295029522
0.00777582707651
0.0370323210028
-0.205530417255
-0.687780693312
4.0763237357
0.0140797210981
0.000335119796448
6.94444081218e-06
2.28606692303e-07
2.55721310694e-08
3.66129069696e-09
3.76654247898e-10
1.45559082475e-11
6.21973787918e-13
1.12664718088e-14
9.84130223654e-17
2.74222588149e-19
0.000781982009811
0.00160144613333
0.0032497392272
0.00779304939523
0.0336911084271
-0.0784578650406
-1.11916948424
4.01504864973
0.0296919230093
0.000734358329517
1.49905396038e-05
3.51173143488e-07
3.49582221623e-08
4.98034843157e-09
5.99498405602e-10
2.79264941001e-11
1.30692827416e-12
2.64230704938e-14
2.57587572219e-16
8.06871385378e-19
0.00103114934084
0.00188262982449
0.0034778207345
0.00797732902403
0.0315808175932
-0.0250206571522
-1.31643819059
3.75327939622
0.062484364872
0.00128677168061
2.46518932643e-05
5.39224991504e-07
4.63456562198e-08
6.74664383618e-09
8.83124008381e-10
5.2199313195e-11
2.62658558891e-12
5.91227160376e-14
6.44210002289e-16
2.27339154746e-18
0.00132471113314
0.00217559901978
0.00374530466834
0.00832422418036
0.0303840821824
-0.00383189175238
-1.33398508183
3.32160871841
0.188741389869
0.0020526517238
3.90567133791e-05
8.43420539887e-07
6.09801200573e-08
8.9634080247e-09
1.17453636709e-09
9.27613160373e-11
5.06711043147e-12
1.26484910332e-13
1.54224039802e-15
6.14378579313e-18
0.00164374924026
0.00247280977495
0.00406164287485
0.008833696826
0.0298643689603
0.00384698251304
-1.25172720882
2.6534087779
1.64864104986
0.00502220201446
9.95681830019e-05
1.82520905514e-06
8.93116892641e-08
1.17205370957e-08
1.52343039106e-09
1.57126123783e-10
9.32903646739e-12
2.5912896741e-13
3.53935497765e-15
1.59529349247e-17
0.00196549288572
0.00277614150273
0.00444101075511
0.00951069119663
0.0297916140974
0.00660672693314
-1.09882157783
1.74163119074
2.24873375264
0.0100415275672
0.00022323981946
3.95220358874e-06
1.36365158844e-07
1.56282129226e-08
2.05768207636e-09
2.53687570603e-10
1.6498728585e-11
5.08166504169e-13
7.78478032521e-15
3.9824146487e-17
0.00228032292746
0.00310230112212
0.00490841893496
0.0103831856942
0.0300662496062
0.00786919136038
-0.912835246807
0.819089699239
2.47889747761
0.0180705543157
0.000440356801169
7.66979524688e-06
2.00409752252e-07
1.99654041721e-08
2.86637897425e-09
3.72934576208e-10
2.65785658373e-11
9.53242697008e-13
1.63950104202e-14
9.5579124859e-17
0.00260294544678
0.00348230860502
0.00550237626475
0.0115023215806
0.0306782919847
0.0088036285235
-0.73140054029
0.0288207555627
2.75400281575
0.0341360171345
0.000803936545831
1.35825983912e-05
2.79085871961e-07
2.48113502899e-08
3.65633412445e-09
5.24599249526e-10
3.37406938334e-11
1.71433963585e-12
3.30685038361e-14
2.20716786655e-16
0.00296961033281
0.00395811444453
0.00627502119885
0.0129291672182
0.0315995722555
0.00945961599603
-0.57852563889
-0.543590628253
2.95516404146
0.083948378512
0.00138300596149
2.1995945241e-05
4.10379987473e-07
3.05772053131e-08
4.51454053846e-09
7.10897110209e-10
4.42428646099e-11
3.00541788655e-12
6.39480706809e-14
4.91270581751e-16
0.00342913116215
0.00458154394357
0.00729191407104
0.0147184141639
0.0327095608012
0.00886121665822
-0.474156784696
-0.838801781719
3.02971418858
0.370054134896
0.00272790567981
4.46527966562e-05
7.14900038017e-07
3.92721400843e-08
5.56267803919e-09
9.17979718475e-10
5.94809968302e-11
5.07078173314e-12
1.1862582401e-13
1.05552228893e-15
0.00403849050999
0.00541616305309
0.00862793057819
0.0168898310182
0.0337465762674
0.0059652743968
-0.417284452806
-0.968242919321
2.94541012331
0.773751822377
0.00534776107101
9.90067334886e-05
1.43198110417e-06
5.45224759793e-08
6.74042500021e-09
1.14235457547e-09
8.0816326833e-11
8.22984101115e-12
2.10931258998e-13
2.18984368328e-15
0.00486518138962
0.00653906169373
0.0103567418431
0.0193943930756
0.0343288737828
0.00040629716573
-0.389357682578
-1.04312102698
2.78870864307
0.932780134856
0.00878442818287
0.000193727238991
2.69850689164e-06
7.73878648114e-08
8.20731949369e-09
1.39157660886e-09
1.09188826864e-10
1.28358524679e-11
3.5909520916e-13
4.38487903018e-15
0.00599157891978
0.00803792101858
0.0125289444609
0.0220805406883
0.0340135946097
-0.00793227945613
-0.375095271356
-1.08047509921
2.61598706022
1.04824217407
0.0128479016123
0.000388054540728
5.19059585353e-06
1.13961404273e-07
1.01012355509e-08
1.66414942031e-09
1.45247325731e-10
1.92350759796e-11
5.8681909552e-13
8.47269976212e-15
0.00751196156773
0.00999211246755
0.0151257079115
0.0246551858363
0.0323280205031
-0.0191086658376
-0.373811714625
-1.08947146061
2.457011614
1.16150854307
0.0200125937226
0.000676015910604
1.09181945342e-05
1.87280685909e-07
1.27376014902e-08
1.97972593173e-09
1.9018208575e-10
2.77338073299e-11
9.26657039063e-13
1.58043343787e-14
0.00950705919231
0.0124232589331
0.0179892576853
0.0266668663456
0.0288125411048
-0.0332359943117
-0.381655979922
-1.0776107468
2.33486971924
1.25314350086
0.0375369100474
0.00108866941128
2.32973230491e-05
3.51351163154e-07
1.72629156509e-08
2.38101299045e-09
2.46235955061e-10
3.85952766668e-11
1.40973079344e-12
2.84722136273e-14
0.011977763731
0.0152099324374
0.0207561554793
0.0275364164073
0.0230466996374
-0.0505834080303
-0.396574660286
-1.04908381142
2.24944309919
1.30936156315
0.0783920302089
0.00170469157546
4.89645261075e-05
7.43093454199e-07
2.6303978275e-08
2.93851308882e-09
3.17202867548e-10
5.21198874204e-11
2.0712718416e-12
4.95440013279e-14
0.01474070591
0.017997536513
0.0228465844638
0.0266457265503
0.0146491984719
-0.0716267053338
-0.417240485185
-1.0002686411
2.19605071373
1.32596120862
0.128945511383
0.00257180178222
9.82165325858e-05
1.68722196717e-06
4.38359463533e-08
3.83546366304e-09
4.10491538856e-10
6.88509186189e-11
2.94879950466e-12
8.32618740104e-14
0.0173414970732
0.0201789422728
0.0235584714616
0.0234443643025
0.00319455189517
-0.0973044033742
-0.444192952906
-0.915002156357
2.17644449493
1.2809949706
0.163109052459
0.00359830190625
0.00017723094164
3.6390297307e-06
7.80324302249e-08
5.31347098568e-09
5.40938842373e-10
8.98778386877e-11
4.08556979247e-12
1.35175381081e-13
0.0190888730443
0.0210172281413
0.0222340387844
0.0174578836768
-0.012135324026
-0.1303217699
-0.486625403755
-0.728662346793
2.16781374414
1.212601185
0.181841927001
0.00476612696039
0.000286900647761
7.34232311063e-06
1.43666906024e-07
7.74115519122e-09
7.3454655396e-10
1.17106778661e-10
5.5366361146e-12
2.12206645202e-13
0.0192594452595
0.0198613843292
0.0183555539134
0.00809471892871
-0.0329450483715
-0.17485160852
-0.553029157127
-0.380075102751
2.0899549042
1.13156481584
0.192123306072
0.0061313491001
0.000422527843197
1.37699380351e-05
2.7124274981e-07
1.17521044463e-08
1.03480349678e-09
1.53389077679e-10
7.3745188175e-12
3.22676931549e-13
0.0173296302259
0.0162647980059
0.0114675151685
-0.00548365333645
-0.0609367248461
-0.230724063738
-0.628358373536
0.0300835665989
1.98310564875
1.03742852367
0.195416767779
0.00780960788833
0.000583216594538
2.43688686278e-05
5.4494355776e-07
1.86330513563e-08
1.50875167941e-09
2.02217701989e-10
9.68942064402e-12
4.76423718858e-13
0.0129957501474
0.0098874353357
0.00103170246262
-0.0242482459898
-0.0968916446638
-0.292340145529
-0.695366803043
0.45636175185
1.86013056786
0.931219748116
0.191562991991
0.00972729314314
0.000772115107516
4.119986889e-05
1.06019188441e-06
3.03689452172e-08
2.27975919591e-09
2.67747321833e-10
1.25860054505e-11
6.85198104853e-13
0.00599010468673
0.000325009627879
-0.0135932426519
-0.0489126436264
-0.139672294347
-0.350009814705
-0.728639268034
0.878315934486
1.71354223774
0.817348489056
0.18117033433
0.011704127302
0.00097182489869
6.5191775473e-05
2.0247172752e-06
5.13706495536e-08
3.37864923159e-09
3.54494368399e-10
1.61874727117e-11
9.63902987435e-13
-0.0040418788819
-0.0129227375942
-0.0330409156663
-0.0797900807853
-0.187291136815
-0.399249191267
-0.637501345191
1.23853102945
1.54176003518
0.700287928834
0.165332776775
0.0133819694038
0.00116968111487
9.7439116575e-05
3.71946128449e-06
9.1928962187e-08
4.8439288274e-09
4.68448578864e-10
2.06401561076e-11
1.33373493491e-12
-0.0176661702382
-0.0307563282671
-0.0589190467791
-0.120249023541
-0.248916117403
-0.486847606553
-0.0674091220166
1.42105495714
1.33788629178
0.583757707802
0.145566425492
0.0143700212899
0.00134732893824
0.000138656555181
6.52398591255e-06
1.6875138352e-07
7.14030630163e-09
6.14818742479e-10
2.61519100245e-11
1.82840515e-12
-0.0349672988093
-0.0532970442633
-0.0909763777145
-0.167299008037
-0.310551949426
-0.541963764593
0.567262031462
1.44709502362
1.11491578362
0.472188207206
0.123604980046
0.0144818418557
0.00149016087634
0.000183723671992
1.06717471937e-05
3.0899707802e-07
1.05970592948e-08
7.95387552556e-10
3.30323918158e-11
2.50538974696e-12
-0.0565078642228
-0.0820086378736
-0.132361535544
-0.22754318205
-0.398366012413
-0.120213205955
1.01533476487
1.33565983519
0.888024886464
0.369331730902
0.101112805237
0.0137708935014
0.00158556311195
0.000226799851911
1.66702134518e-05
5.59914867122e-07
1.59409151889e-08
1.01199553729e-09
4.17945221012e-11
3.46443650731e-12
-0.0855000709492
-0.121029668542
-0.187011769905
-0.302783069759
-0.314906379225
0.563463561014
1.18573703866
1.12296435711
0.671577166256
0.277553062748
0.0794767493719
0.0124497177241
0.00162526715806
0.000263293552547
2.46027783698e-05
1.01845563123e-06
2.44696192819e-08
1.26403226826e-09
5.31987339413e-11
4.90228877826e-12
-0.131857925862
-0.18126411097
-0.264498887766
-0.21277393811
0.366231900054
0.925742415209
1.09456531352
0.86005007848
0.482902664506
0.202149488054
0.0616679611808
0.0112663590648
0.00166443874293
0.000300199775141
3.49125976177e-05
1.72348282803e-06
3.78426170136e-08
1.50661218655e-09
6.7483712115e-11
7.18807824624e-12
0
0
0
0
0
0
0
0
0
0
0
0
0
0
0
0
0
0
0
0
0
0
0
0
0
0
0
0
0
0
0
0
0
0
0
0
0
0
2.15557185554e-28
0
8.55779315179e-28
0
1.18951991671e-26
0
5.73706331721e-26
7.21054704656e-27
2.747773495e-25
2.86232326214e-26
1.25091495999e-24
2.2796157297e-25
5.60187419167e-24
1.02441276129e-24
2.37134599056e-23
4.67265978656e-24
9.7482124818e-23
2.08124870455e-23
3.80337826254e-22
8.7805590674e-23
1.42240384599e-21
3.54321758459e-22
5.08984762438e-21
1.38990714472e-21
1.74177844544e-20
5.16938823892e-21
5.70101898324e-20
1.83634924668e-20
1.78584954311e-19
6.23209792675e-20
5.36151505887e-19
2.02576014448e-19
1.54503170708e-18
6.30332638608e-19
4.27765964484e-18
1.88148958262e-18
1.13831017006e-17
5.39054388784e-18
2.91354604968e-17
1.48304783507e-17
7.18340603431e-17
3.92352644959e-17
1.70833456999e-16
9.99335721621e-17
3.9208246756e-16
2.45218246861e-16
8.68325721538e-16
5.79734172997e-16
1.85524586793e-15
1.32027341111e-15
3.82421118918e-15
2.89589076275e-15
7.60436826795e-15
6.11619602547e-15
1.45791257285e-14
1.24305621411e-14
2.69267995708e-14
2.42911154472e-14
4.78771054711e-14
4.56086097849e-14
8.19507783397e-14
8.22793562995e-14
1.35163010167e-13
1.42771270913e-13
2.15276510995e-13
2.38895668366e-13
3.32318265127e-13
3.87138633316e-13
5.0003333532e-13
6.11806931617e-13
7.39123827586e-13
9.51730169612e-13
1.08303035072e-12
1.47200584257e-12
1.59078963729e-12
2.29262141464e-12
2.36480134576e-12
3.62819005634e-12
3.60372775285e-12
5.87272533289e-12
6.17694079958e-12
1.14173934955e-11
)
;

boundaryField
{
    inletfuel
    {
        type            calculated;
        value           uniform 0;
    }
    inletair
    {
        type            calculated;
        value           uniform 0;
    }
    outlet
    {
        type            calculated;
        value           uniform 0;
    }
    axis
    {
        type            empty;
    }
    leftside
    {
        type            calculated;
        value           uniform 0;
    }
    burnerwall
    {
        type            calculated;
        value           uniform 0;
    }
    front
    {
        type            wedge;
    }
    back
    {
        type            wedge;
    }
}


// ************************************************************************* //
