/*--------------------------------*- C++ -*----------------------------------*\
  =========                 |
  \\      /  F ield         | OpenFOAM: The Open Source CFD Toolbox
   \\    /   O peration     | Website:  https://openfoam.org
    \\  /    A nd           | Version:  dev
     \\/     M anipulation  |
\*---------------------------------------------------------------------------*/
FoamFile
{
    version     2.0;
    format      ascii;
    class       volScalarField;
    location    "0.3";
    object      edc::YStar_H2O;
}
// * * * * * * * * * * * * * * * * * * * * * * * * * * * * * * * * * * * * * //

dimensions      [0 0 0 0 0 0 0];

internalField   nonuniform List<scalar> 
1629
(
4.73701977387e-17
4.51944777506e-17
3.68098531554e-17
6.51713019673e-15
8.96681380932e-15
1.55379640964e-14
4.84768578718e-13
1.02839107438e-12
3.75687775418e-12
2.68501719234e-11
8.56938987143e-11
6.01372325298e-10
1.03255341967e-09
3.44661939667e-09
1.95794397799e-08
3.92461387687e-08
1.42597296466e-07
7.32909836901e-07
1.14748399327e-06
4.23545637354e-06
1.96555521197e-05
2.01318446581e-05
7.10904020255e-05
0.00030856081521
9.36787736973e-05
0.000256623713797
0.000829349903933
0.000270147653695
0.000586851291564
0.00149020366738
0.000589696327591
0.00105751841459
0.0022143311094
0.00107439019067
0.00166442831173
0.00301124213839
0.00173714885929
0.00242308855759
0.00394200304525
0.00259526815931
0.00336592556723
0.00506802782841
0.00367503195269
0.00453178902656
0.00643773362816
0.00499554433097
0.00593566125742
0.00803224336669
0.00655788046289
0.00756749855551
0.0098102781399
0.00834830126694
0.00940658213449
0.0117413339738
0.0103476296795
0.0114335701529
0.0138130515112
0.0125391276763
0.0136362806643
0.0160281276745
0.0149108548407
0.016007709595
0.0183911557943
0.017454321112
0.0185417364731
0.0208990638739
0.020163994977
0.0212337589873
0.0235476634288
0.023032487862
0.0240764778454
0.0263296820666
0.0260455470108
0.0270552998495
0.0292303437801
0.0291852144592
0.0301528083877
0.0322339773717
0.0324385400949
0.0333585245282
0.0353358002042
0.0357985627499
0.0366682968456
0.0385375536694
0.0392579030576
0.0400763702153
0.041836325891
0.0428018524419
0.0435681470584
0.0452171327027
0.0464099193581
0.0471230094114
0.0486588024277
0.050064475288
0.0507244614032
0.0521473300714
0.0537528762531
0.0543615161798
0.0556753708897
0.0574635432185
0.0580235927492
0.0592343308279
0.0611843157664
0.061698624904
0.0628120819209
0.0649044753851
0.0653757541483
0.0663973750811
0.0686145577226
0.0690454956612
0.069980765825
0.0723052371032
0.0726986781841
0.0735535264562
0.0759671826244
0.0763261481729
0.0771069527953
0.0795930230868
0.0799206029298
0.0806339060507
0.0831791721509
0.0834784139809
0.0841306662235
0.0867242406402
0.0869979612123
0.0875951174155
0.0902261926132
0.0904767992001
0.0910239351828
0.0936806942309
0.093910120206
0.0944113020354
0.0970820925928
0.0972918821979
0.0977503622198
0.100426315676
0.100617791638
0.101036371685
0.103712796871
0.103887142418
0.104268337643
0.106943375058
0.107101542495
0.107447362898
0.110116868006
0.110259341567
0.110570762673
0.113218394754
0.113344926602
0.113621322585
0.11620504723
0.116314602015
0.116553655617
0.118996164086
0.119087355561
0.119286058969
0.121483424592
0.12155552094
0.121712388725
0.123568780471
0.123622755514
0.123740071971
0.125209661301
0.12524835811
0.125332450045
0.126435559849
0.126462782252
0.126521982035
0.127325755716
0.127345065103
0.127387115501
0.127972571111
0.127986582974
0.128017137832
0.128456027671
0.128466413409
0.128489074726
0.128801446406
0.12880863916
0.128824298046
0.128974106745
0.12897797507
0.128986319117
0.128894280175
0.128894732985
0.128895525828
0.128561566436
0.128559600066
0.128554898153
3.35931326535e-09
7.9964955238e-08
2.55964012732e-06
6.61672621915e-05
0.00110874504886
0.00225747002425
0.00330106470337
0.00418881297337
0.0051180038215
0.00625424111044
0.00765375540358
0.00934139278758
0.0111937667932
0.0131316784592
0.0151349535778
0.0172183503615
0.0194138958713
0.0217411577458
0.0241941860533
0.026765090893
0.0294463153039
0.0322247961843
0.0350891684227
0.0380430107326
0.0410949129221
0.0442440764642
0.0474738386393
0.0507619555524
0.0540979618259
0.0574793828437
0.0608999088099
0.0643468057144
0.0678080547641
0.0712743345043
0.0747377396876
0.0781903389749
0.0816252429298
0.0850385670761
0.0884274764753
0.0917874318503
0.0951112657672
0.0983910717921
0.101621551632
0.104801344417
0.107930837413
0.111005871484
0.114006995312
0.116886546007
0.119562048863
0.121929709181
0.123902307251
0.125448704988
0.126603940679
0.12744547917
0.128059639115
0.128520621498
0.128845998662
0.12899769025
0.128896146495
0.128547381112
1.99932990072e-13
9.91723198951e-13
2.43411801783e-12
3.55696931818e-12
2.97715493931e-12
1.59944583075e-12
6.05756921153e-13
1.7187028929e-13
3.8362609171e-14
6.92624310017e-15
1.02603044186e-15
1.25955952906e-16
1.29162904238e-17
1.11469414308e-18
8.16266700166e-20
5.12412477312e-21
2.79803423305e-22
1.35279686645e-23
5.91652063797e-25
2.17080344419e-26
3.49401374779e-12
1.64475367926e-11
4.76806269104e-11
7.70203768172e-11
6.04142017553e-11
2.87268233612e-11
9.46597442831e-12
2.33778347958e-12
4.59314765829e-13
7.36861030339e-14
9.78932158875e-15
1.08849888818e-15
1.02202628071e-16
8.1720355149e-18
5.61765279712e-19
3.3604646122e-20
1.78080622049e-21
8.54458041057e-23
3.73714037396e-24
4.87637543511e-25
6.60495810679e-11
1.66233603952e-10
5.59301051016e-10
9.85332469295e-10
7.1610494841e-10
3.03072308603e-10
8.83354610988e-11
1.94841317322e-11
3.46049463628e-12
5.05519849384e-13
6.16419270089e-14
6.34443206355e-15
5.5631011746e-16
4.19313267887e-17
2.74497064728e-18
1.58226575751e-19
8.19567192367e-21
3.92925870357e-22
1.75054824031e-23
1.23995245216e-23
2.23420956549e-09
2.01560984836e-09
6.13115489419e-09
1.01561623941e-08
6.71549540097e-09
2.58521418674e-09
6.88072177994e-10
1.40726701485e-10
2.33352180257e-11
3.20518418239e-12
3.70164954124e-13
3.63401774037e-14
3.05999146987e-15
2.22951091751e-16
1.42039991652e-17
8.02878451805e-19
4.11668209369e-20
1.98166197612e-21
9.15783433126e-23
2.95977578953e-22
1.27173299118e-07
6.67842484065e-08
9.740642954e-08
1.16534822836e-07
6.50174319003e-08
2.22236721012e-08
5.34257803022e-09
1.00529466425e-09
1.54652072106e-10
1.99364983376e-11
2.18574138918e-12
2.0580236564e-13
1.67695467166e-14
1.19160846147e-15
7.45605037054e-17
4.16785732618e-18
2.12939625232e-19
1.03228664287e-20
4.81289151591e-22
6.07573801606e-22
6.64071663502e-06
6.7304599208e-06
2.67735812883e-06
1.53361815226e-06
6.37666804528e-07
1.86371418769e-07
3.99782353709e-08
6.80302867385e-09
9.63458985137e-10
1.16388152916e-10
1.21442810193e-11
1.10224829494e-12
8.74722872709e-14
6.10377766794e-15
3.77609298586e-16
2.0993705701e-17
1.07277935615e-18
5.235231773e-20
2.44421766881e-21
9.92592171717e-22
0.000246873593497
0.00082897375686
0.000147847140482
3.02897412691e-05
6.94971417504e-06
1.4919794984e-06
2.70322928114e-07
4.10137134976e-08
5.35135221913e-09
6.10473342116e-10
6.12718313968e-11
5.42166328897e-12
4.23556852324e-13
2.93029403516e-14
1.80676520451e-15
1.00508265142e-16
5.15300466273e-18
2.52599078597e-19
1.17024225719e-20
1.68993659463e-21
0.00568002103405
0.0802823021464
0.00785997886373
0.000901779278816
8.86473069754e-05
1.0395977248e-05
1.4432113924e-06
1.96088425376e-07
2.42989061885e-08
2.70577142733e-09
2.68958833627e-10
2.37620229917e-11
1.86229987892e-12
1.29621914443e-13
8.05384619275e-15
4.5173072936e-16
2.33257107503e-17
1.14675038363e-18
5.22959661146e-20
3.62698902818e-21
0.00805534084478
0.0469137229041
0.00907805735675
0.00125189703542
0.000164233889863
2.37526453206e-05
3.82595476328e-06
5.89183024274e-07
8.00639105826e-08
9.51418102487e-09
9.91552591849e-10
9.08413107012e-11
7.33115136541e-12
5.22932258959e-13
3.31727469168e-14
1.89256094052e-15
9.88844556845e-17
4.87534594852e-18
2.17820865229e-19
1.01262135648e-20
0.00914583853718
0.0311520302371
0.00973859487889
0.00136564695699
0.000225604316775
4.02905997875e-05
7.6736894557e-06
1.37593111387e-06
2.12636438367e-07
2.79488363165e-08
3.14894204896e-09
3.06625344948e-10
2.59768100946e-11
1.92717008336e-12
1.2619969576e-13
7.38036249363e-15
3.91958165465e-16
1.9400844252e-17
8.47805206829e-19
3.2339460653e-20
0.00956061331115
0.0229645962543
0.0111707535921
0.00198788416331
0.000397980702409
7.64265630119e-05
1.54792765965e-05
3.03416844551e-06
5.17449922379e-07
7.44215200685e-08
9.06062617068e-09
9.42138634577e-10
8.43570123389e-11
6.55519902721e-12
4.45951117173e-13
2.68691105697e-14
1.45537540379e-15
7.24248840335e-17
3.09711591361e-18
1.05549914523e-19
0.0105268749539
0.0270018839215
0.0726251478006
0.00806328627867
0.00133069180739
0.000212084813888
3.7226430341e-05
7.04151450938e-06
1.24190027202e-06
1.89092064984e-07
2.44778847388e-08
2.69991188075e-09
2.55156335037e-10
2.07981228469e-11
1.47370173838e-12
9.17281851508e-14
5.07916409934e-15
2.54529664969e-16
1.06714353368e-17
3.35695357359e-19
0.0122204535144
0.0331749522674
0.117079224836
0.0148463028052
0.00252705261604
0.000431627138221
7.72682187358e-05
1.49212837527e-05
2.76805066427e-06
4.48557280671e-07
6.18089010536e-08
7.23388506433e-09
7.22131765305e-10
6.18347419207e-11
4.57249403731e-12
2.94638280582e-13
1.67134093716e-14
8.45175538907e-16
3.48476202826e-17
1.02725815599e-18
0.0143609187739
0.03773529851
0.128899723162
0.020503346618
0.00362546560628
0.000695194678371
0.000135461408785
2.78860639758e-05
5.56773816551e-06
9.74943766242e-07
1.44417795804e-07
1.80457069715e-08
1.91082989557e-09
1.72436911416e-10
1.33438216459e-11
8.92382304025e-13
5.19890173742e-14
2.66035699074e-15
1.08318306384e-16
3.02384929706e-18
0.0168520625846
0.041920135253
0.129819275962
0.0278132656796
0.00569545792661
0.00120259502216
0.000240627483781
5.04251121134e-05
1.05643346336e-05
1.98076003381e-06
3.15019685939e-07
4.20941439998e-08
4.73971594983e-09
4.51977149087e-10
3.6699131137e-11
2.55396070456e-12
1.53251500744e-13
7.96252093476e-15
3.21737960118e-16
8.58994772525e-18
0.0191569481544
0.0424134373676
0.0910864818001
0.072992775877
0.0113868677581
0.00230670316778
0.000446787867612
9.09773346548e-05
1.93447204188e-05
3.81885303526e-06
6.47788735733e-07
9.24019038259e-08
1.10689689113e-08
1.1171528747e-09
9.53819034421e-11
6.92454982041e-12
4.29242431004e-13
2.27293716115e-14
9.16421907612e-16
2.36361147599e-17
0.0212456475381
0.0424162279942
0.0805955437386
0.108780609338
0.0173510050224
0.00350094736422
0.000706296613464
0.000148269345459
3.27800853951e-05
6.87260332389e-06
1.2493780348e-06
1.90860144505e-07
2.43848489788e-08
2.61059960901e-09
2.34908801162e-10
1.78355485748e-11
1.1456176462e-12
6.20661572138e-14
2.51112118181e-15
6.32091128051e-17
0.0232127141716
0.042650014745
0.0759665742871
0.126035214907
0.0229171662367
0.00460204466491
0.000982804263668
0.000219210176982
5.13884345649e-05
1.15476454176e-05
2.26337200065e-06
3.71937449579e-07
5.08427327096e-08
5.7880052577e-09
5.50128291159e-10
4.37876769831e-11
2.92292589826e-12
1.62637208657e-13
6.63958318611e-15
1.6477236055e-16
0.0251667933624
0.0432890643653
0.0735071173955
0.127727846583
0.0297401356045
0.00608953752309
0.00137938140329
0.000322041680738
7.87013588137e-05
1.87215040932e-05
3.93088171371e-06
6.93022161474e-07
1.01272491104e-07
1.22605649892e-08
1.2318583823e-09
1.02940264745e-10
7.1575146581e-12
4.1039952775e-13
1.69923682172e-14
4.19799281658e-16
0.0272148166837
0.0444842855137
0.0732507350536
0.13054909543
0.0385213640067
0.00917001693178
0.00223841597529
0.000522185881764
0.000125946100832
3.05490726781e-05
6.72599503499e-06
1.25744445602e-06
1.95178804669e-07
2.50433847667e-08
2.65601182964e-09
2.33021296236e-10
1.68984924049e-11
1.00106767916e-12
4.22247826767e-14
1.04785051691e-15
0.0293952508174
0.0460496970185
0.0735211030735
0.124229587291
0.0874566408687
0.0166933340224
0.0039486471232
0.000896592631269
0.000208247799023
5.02084872383e-05
1.13961112967e-05
2.23632132738e-06
3.6638858437e-07
4.96310025464e-08
5.54432166732e-09
5.10338246514e-10
3.86249438578e-11
2.36872122089e-12
1.02171935615e-13
2.56772810151e-15
0.0316700252535
0.0476271651522
0.0729351879123
0.111780439337
0.115808722656
0.0240750040911
0.00570567518522
0.00134648491129
0.00032003842792
7.88752343189e-05
1.86381404529e-05
3.85345275617e-06
6.67144837048e-07
9.54059636536e-08
1.12234277669e-08
1.08402385753e-09
8.57008955048e-11
5.45090349592e-12
2.41268248821e-13
6.18616318315e-15
0.0340116248046
0.049137955437
0.0719681514698
0.102968199259
0.126362069026
0.0310859058994
0.00747069280527
0.00186310704718
0.000463112938715
0.000118266022506
2.92708826151e-05
6.40156692249e-06
1.17452138736e-06
1.77640073253e-07
2.20319048351e-08
2.23526141139e-09
1.84843259688e-10
1.22177609227e-11
5.56760026915e-13
1.46633150665e-14
0.0364139167579
0.0506522258401
0.0712476402115
0.0976966295475
0.126764108426
0.0394786178917
0.0104681153886
0.00276038395267
0.000695408511853
0.000178314182998
4.53084863125e-05
1.03810853969e-05
2.01077136653e-06
3.21249151104e-07
4.2005223851e-08
4.4795844429e-09
3.87964258293e-10
2.67003794868e-11
1.25653464749e-12
3.42005220379e-14
0.038876252696
0.0522519642437
0.0711307436288
0.0954907350224
0.129798280463
0.0745976885164
0.0167077375519
0.00434763734478
0.00108293307777
0.000272551005471
6.96940421647e-05
1.6531996429e-05
3.36101239122e-06
5.65748247947e-07
7.79198833454e-08
8.7361176318e-09
7.93177346052e-10
5.69329856521e-11
2.77462871175e-12
7.84693960216e-14
0.0414021486195
0.0539733056911
0.0715386844587
0.0946708168838
0.129232886803
0.0989190466298
0.0234532607234
0.00611548463364
0.00155608351847
0.000396219207443
0.000103279320071
2.54686084855e-05
5.44620999766e-06
9.6728876679e-07
1.40487137236e-07
1.65777143639e-08
1.57996169273e-09
1.1848257278e-10
5.99510461856e-12
1.77008598207e-13
0.0440124436384
0.0558507873029
0.0723296869331
0.0942135229801
0.125211270428
0.118831663228
0.0309926337152
0.0079934376052
0.00207827023408
0.000543580188318
0.000146156788968
3.76976623481e-05
8.5150104444e-06
1.60106953414e-06
2.45837954913e-07
3.05927690386e-08
3.0660161675e-09
2.4065545003e-10
1.26734360423e-11
3.92296608855e-13
0.0467255647635
0.0578870131319
0.073358477069
0.0937240219224
0.120662656178
0.125780615209
0.0395471246216
0.01032088063
0.00275539192257
0.000737862492836
0.000203149484016
5.44662379851e-05
1.29572194134e-05
2.57777747541e-06
4.18639120148e-07
5.49891493708e-08
5.80175166283e-09
4.77316966255e-10
2.62142159973e-11
8.53719186424e-13
0.0495406671718
0.0600497440822
0.0745125132429
0.093178348945
0.116358916644
0.125300530238
0.0492165893292
0.0140232995205
0.00389741891309
0.00104836035344
0.000287770637587
7.86160195419e-05
1.94718939054e-05
4.07438015847e-06
6.97803546603e-07
9.66232013487e-08
1.07293478558e-08
9.25656338357e-10
5.30848605032e-11
1.82384702288e-12
0.0524356731255
0.0622928060334
0.0757552283301
0.0928596966532
0.113563999695
0.127514607824
0.0795601312042
0.0205180777577
0.00570439917632
0.00152685138711
0.000413043651603
0.000113426881474
2.89738670313e-05
6.34128933802e-06
1.14171616424e-06
1.66361308608e-07
1.94262379388e-08
1.75730674131e-09
1.05309825015e-10
3.82453834388e-12
0.0553860108597
0.0645882069864
0.0770933257126
0.0928869889826
0.112063775539
0.129897014523
0.0984547012754
0.0275491258049
0.00772249029073
0.00210503870394
0.000573795137975
0.000159763117164
4.21691946095e-05
9.65822265748e-06
1.82835268785e-06
2.80357941889e-07
3.44276076621e-08
3.26616237587e-09
2.0466421364e-10
7.86882384849e-12
0.058389098783
0.0669589441488
0.078595816483
0.0933169288595
0.111386014979
0.130213018554
0.113680895573
0.0355995191209
0.0100382085359
0.0027941342767
0.000773643379924
0.000219240202868
5.9841928775e-05
1.4352719835e-05
2.85923444813e-06
4.61734966135e-07
5.96635852243e-08
5.93958577191e-09
3.89461540886e-10
1.58732575568e-11
0.0614525087199
0.0694333512167
0.0802996497075
0.0941045950051
0.111160817176
0.129534140604
0.121653889483
0.0454008138392
0.0133111373469
0.0037879336651
0.00105354703675
0.000299763943914
8.3781239044e-05
2.09345124918e-05
4.37872849352e-06
7.44051550181e-07
1.01145498656e-07
1.05674599038e-08
7.25415938461e-10
3.13742110793e-11
0.0645738711637
0.0720063442935
0.0821666789109
0.0951134834027
0.11108447121
0.128278172516
0.125314090353
0.0635353070177
0.0181940548873
0.00522775312552
0.00145159803047
0.00041046654257
0.000116279028801
3.00767044009e-05
6.58288572752e-06
1.1749595122e-06
1.67883122897e-07
1.84015381131e-08
1.32256935415e-09
6.07429372108e-11
0.0677378416067
0.0746451469417
0.0841174732355
0.0961790276778
0.110905839179
0.126384178788
0.126642276003
0.0780995723522
0.0237820288792
0.00694598758977
0.00194711243406
0.000551182339415
0.000158319653176
4.23383483028e-05
9.68955881377e-06
1.81604273711e-06
2.72698938911e-07
3.13566254135e-08
2.35993623177e-09
1.1517070037e-10
0.0709299763202
0.0773281755905
0.0861227297812
0.0972999678272
0.110827790091
0.124931320057
0.127583504071
0.0920548059271
0.0302837515077
0.00894518987688
0.0025337689542
0.000721464609596
0.000210457565778
5.81899601081e-05
1.3929586553e-05
2.74295562033e-06
4.33083661398e-07
5.22610096402e-08
4.12010743391e-09
2.13812243676e-10
0.0741412704584
0.0800512641022
0.0881969154732
0.0985509088398
0.111061297588
0.12421804435
0.1289757036
0.103448948384
0.0378545380507
0.0114036444688
0.00326711675959
0.000934296782077
0.000275593469511
7.84860664822e-05
1.96142489211e-05
4.0551903947e-06
6.73106019293e-07
8.52404505138e-08
7.04052968622e-09
3.88770066378e-10
0.0773661374849
0.0828176225389
0.0903623054552
0.0999843599652
0.111657699903
0.124074469544
0.130037466267
0.111330620119
0.0471758004094
0.0146931983118
0.00426857348053
0.00121882063017
0.000359962708643
0.000104746266387
2.72016131104e-05
5.89023111618e-06
1.02644508428e-06
1.36301416394e-07
1.17907646338e-08
6.93006229637e-10
0.0805987182109
0.0856265380589
0.0926235241008
0.101597078288
0.112546936971
0.124262755796
0.130691882923
0.117069145965
0.0593530699971
0.0190335246784
0.00561588101524
0.00159914459934
0.000469647876246
0.000138612779152
3.72296702881e-05
8.42126587322e-06
1.53825972697e-06
2.13964416119e-07
1.93745375474e-08
1.21227288027e-09
0.0838326397676
0.0884714038259
0.0949671502123
0.103348432364
0.113615771118
0.124573748673
0.130947819706
0.121575641659
0.0698297165116
0.024065566375
0.0072648985487
0.00207555513153
0.000606670906982
0.000181051544342
5.01629917022e-05
1.18355952553e-05
2.2643192386e-06
3.29719954072e-07
3.12435216046e-08
2.08178799692e-09
0.0870634506689
0.0913454703618
0.0973776527801
0.105200542542
0.114786361317
0.124881337309
0.130837306502
0.124633229253
0.0795600666764
0.0298112668834
0.00924636506109
0.00265783717869
0.000773748519751
0.000232941313841
6.64348262446e-05
1.63330585145e-05
3.27129442981e-06
4.98546755979e-07
4.94333005512e-08
3.50937330166e-09
0.0902865441534
0.094239860704
0.0998369512963
0.107118823041
0.116003383765
0.125142889908
0.130444246595
0.126289252706
0.0878213619744
0.0362444287561
0.0116572795442
0.00338215314604
0.000979705397421
0.000296263593074
8.66661844643e-05
2.21606161838e-05
4.64245469167e-06
7.40078532084e-07
7.67737141674e-08
5.80984212537e-09
0.0934946589534
0.0971416682644
0.102323661269
0.109071352016
0.117229140137
0.125354970571
0.129898408041
0.127038656279
0.0943984296375
0.0432788172125
0.0146331155308
0.00431118020303
0.00124082458763
0.000374551284086
0.000111783820834
2.96410343226e-05
6.48471329053e-06
1.0802772938e-06
1.17194816339e-07
9.45618106963e-09
0.096677759231
0.100035688539
0.104817080972
0.111034314785
0.11844862029
0.125558513119
0.129384921505
0.127332200795
0.0993717948748
0.0511142646585
0.0182858316809
0.00551040865352
0.00157638415726
0.000472105971752
0.000142874931447
3.91516911882e-05
8.92844751137e-06
1.55249460541e-06
1.76046263244e-07
1.51477443217e-08
0.0998258105675
0.102908813344
0.107302441635
0.112995148568
0.119664162368
0.125807675347
0.129039591868
0.127506550565
0.103494154099
0.0582436737718
0.0224904707832
0.00700734045043
0.00200122334692
0.000592652630426
0.00018090437859
5.1064900929e-05
1.21186133115e-05
2.19721286197e-06
2.60328847576e-07
2.38913469644e-08
0.102932456001
0.105753697563
0.109772499538
0.114947712611
0.120876847203
0.126121886515
0.128867847478
0.12769597667
0.106926127856
0.0645004955657
0.0271093726738
0.00882777040183
0.00253200215981
0.000740234466606
0.000226802185815
6.5739587199e-05
1.62102894899e-05
3.06179500624e-06
3.7891608817e-07
3.71003341447e-08
0.105995565103
0.108566997717
0.112221537983
0.116881204186
0.122074380969
0.1264884719
0.128831890446
0.127877127644
0.109644781138
0.0698533995496
0.0319850416015
0.0110134460547
0.0031966884863
0.000921555042856
0.000281913669392
8.35922067192e-05
2.13783526008e-05
4.20213745329e-06
5.42992561502e-07
5.67321904782e-08
0.109013848506
0.111343428617
0.114636856408
0.118772860037
0.123233180288
0.12688583319
0.128870481512
0.128011836823
0.111645663085
0.0742501173724
0.0369062564225
0.0135986208871
0.00403587071797
0.00114736301313
0.000348335990785
0.000105161882302
2.78297726015e-05
5.68531636384e-06
7.66707133447e-07
8.5475857587e-08
0.111979713515
0.114067460284
0.116991080621
0.120585458009
0.124321913624
0.127286844875
0.128944857925
0.128080173224
0.112952485299
0.0776497837474
0.041743720135
0.0165843408835
0.00509662875309
0.00143242947063
0.000428960319739
0.000131110651471
3.58033184487e-05
7.59039113861e-06
1.06768972111e-06
1.2696350794e-07
0.114868649941
0.116704155197
0.119237769994
0.122271009625
0.125309092865
0.127667719175
0.129026840048
0.128084367147
0.113683718946
0.0803385901554
0.0461890822352
0.0198895699456
0.00642007203947
0.00179494086185
0.000527429971586
0.000162195263683
4.55590198642e-05
1.0006633013e-05
1.46716678608e-06
1.85964463352e-07
0.117628135979
0.11919309061
0.121313651597
0.12378001545
0.126171065643
0.128013395941
0.129099113204
0.128036179789
0.113913017969
0.082413289005
0.049994771406
0.0233516446094
0.00803337825092
0.00225771223637
0.000648543763594
0.000199319389066
5.73772991695e-05
1.30320235246e-05
1.98988727976e-06
2.68551018485e-07
0.120174576988
0.12145273947
0.123150748294
0.125074332058
0.126898912425
0.128321810524
0.129156968519
0.12793703894
0.113657150444
0.0838891583207
0.0530654400232
0.0268137329551
0.00994620729399
0.00285050654042
0.000799176979708
0.000243694276476
7.15764655758e-05
1.67741509729e-05
2.66417025034e-06
3.82255360274e-07
0.122410162901
0.123402277082
0.124698752584
0.126142507427
0.127507972963
0.128617115818
0.129230355803
0.127739519032
0.112927966566
0.0847446496823
0.0554268805552
0.0301339690686
0.0121363027708
0.00360888866851
0.000989206106041
0.000297020829783
8.85326373745e-05
2.13511611178e-05
3.52190837365e-06
5.36239274194e-07
0.124259959937
0.124993837963
0.125945516522
0.127004566388
0.128031674627
0.128927043725
0.129307346085
0.127261024526
0.111817841608
0.0850549240244
0.05725759947
0.0331175396255
0.0145292994806
0.00457025971497
0.00123304698486
0.000361789039929
0.000108711050805
2.68926370844e-05
4.59843482603e-06
7.41512233751e-07
0.125704789857
0.126230560598
0.126915779179
0.127693302672
0.128486359414
0.129217390001
0.129263910897
0.126480830265
0.110325092667
0.0848905784886
0.0586198307358
0.0356400576967
0.0170318493061
0.00576979832352
0.00155230705198
0.000441801882642
0.000132722260976
3.35418651794e-05
5.93270497599e-06
1.01139404299e-06
0.126784789277
0.127159062421
0.127655280783
0.128237799195
0.128862687192
0.129410470801
0.129013007643
0.12526129902
0.108426886769
0.0842766630961
0.0595111278104
0.0376285153049
0.0195588405923
0.00722409905051
0.00197579426642
0.000542447007608
0.000161326226125
4.14469033705e-05
7.56666753925e-06
1.362311388e-06
0.12757473489
0.127845484856
0.128212241446
0.128655643892
0.129133297109
0.129424033496
0.128587285953
0.123407414143
0.106110029503
0.083234418251
0.0599638244862
0.0392112696817
0.021924634362
0.00889993837408
0.00253591255416
0.000670954502818
0.000195429491867
5.07457636778e-05
9.54512154986e-06
1.81538355836e-06
0.128154133755
0.12835390893
0.128627795783
0.128958433069
0.129276483253
0.129225129657
0.128096588857
0.1208084959
0.103354767699
0.0817765498019
0.0600051300279
0.0404317230763
0.0239773993078
0.0107423044575
0.00326616234485
0.000837481002384
0.000236207132062
6.1568730831e-05
1.19201042168e-05
2.39937582493e-06
0.128590932105
0.128739810922
0.12894262482
0.129173929941
0.129310733869
0.128864123241
0.126908550386
0.117485685558
0.100204854006
0.0799463713923
0.0596685250242
0.0412937998077
0.025633899834
0.0126840114458
0.00419194986382
0.00105594278522
0.000285214395793
7.40404524794e-05
1.47596941425e-05
3.15529197616e-06
0.128894083839
0.128993157635
0.129117320531
0.129214223544
0.129074725373
0.128317679605
0.124730993545
0.113490785053
0.0967058792725
0.077795386015
0.058998879285
0.0418301171167
0.0269874317346
0.0145708954768
0.00530984715504
0.00134450762118
0.00034459904025
8.8293454586e-05
1.81623838936e-05
4.14351425118e-06
0.129022008523
0.129066050489
0.129095899937
0.129013250312
0.128571864745
0.127172628804
0.121169093191
0.108902354676
0.092892104854
0.0753715272515
0.0580425483594
0.0420794766641
0.0280856018095
0.0162431881933
0.00663465286688
0.00173174214989
0.000417920720662
0.000104533207572
2.22808272998e-05
5.45321521553e-06
0.128894839887
0.128875897766
0.128787190858
0.128505886175
0.127811186639
0.124494739798
0.116326388796
0.103836440641
0.0888284314749
0.0727412513472
0.0568627059613
0.0420972694348
0.0289689113497
0.017686138575
0.00811841444522
0.00225527317171
0.000510906756823
0.000123044538852
2.7340559931e-05
7.24024684259e-06
0.128525084207
0.128450007435
0.128270266857
0.127701336856
0.125448653921
0.119973058036
0.110785898798
0.0987965297643
0.0850159069924
0.0703975370997
0.0559005798565
0.0422365647496
0.0298787136727
0.0190627347712
0.00968945252989
0.00295154294951
0.000623621952741
0.000143034171509
3.34957655339e-05
9.74542281299e-06
5.77747767987e-20
1.06978551121e-19
4.57397235275e-20
7.68422495658e-20
3.8218309163e-20
6.12056434331e-20
3.48521002866e-20
5.94143931757e-20
3.48391429861e-20
6.09578304592e-20
3.79112925065e-20
6.47331581099e-20
4.55105250945e-20
7.1077074803e-20
6.29401651217e-20
8.17103762702e-20
1.04927906428e-19
1.0107997796e-19
2.10614297163e-19
1.40405508499e-19
4.82184922736e-19
2.2776850605e-19
1.18364769781e-18
4.34260594864e-19
2.98914941255e-18
9.3923331455e-19
7.60212766277e-18
2.19474821203e-18
1.92830570176e-17
5.33673456791e-18
4.85870144939e-17
1.3211188768e-17
1.21429577007e-16
3.29216558044e-17
3.0087945527e-16
8.21253467837e-17
7.38927616512e-16
2.04492747805e-16
1.7974427762e-15
5.07454399392e-16
4.32666542462e-15
1.25205633257e-15
1.02945543086e-14
3.06360834376e-15
2.41783371875e-14
7.41928441259e-15
5.59756242386e-14
1.77510491135e-14
1.27572210704e-13
4.18919775652e-14
2.85853481476e-13
9.74238513999e-14
6.29236092374e-13
2.22824302934e-13
1.35949702183e-12
5.0044906821e-13
2.88014235137e-12
1.10224374538e-12
5.97806721789e-12
2.3781459473e-12
1.21507722536e-11
5.02251000204e-12
2.41783024072e-11
1.03785430563e-11
4.70946190343e-11
2.09794982933e-11
8.98147242253e-11
4.14910031152e-11
1.6783603199e-10
8.03272667282e-11
3.07587883692e-10
1.52356553337e-10
5.5310992955e-10
2.83267856305e-10
9.76074300892e-10
5.16421536671e-10
1.69106462072e-09
9.23535123225e-10
2.87887112402e-09
1.6212659869e-09
4.82018124475e-09
2.79612087721e-09
7.94113775564e-09
4.74003469421e-09
1.28738721896e-08
7.89954556811e-09
2.05393922828e-08
1.2943489286e-08
3.22597889175e-08
2.08548648079e-08
4.98970979315e-08
3.30485597435e-08
7.60062733617e-08
5.15098974611e-08
1.13994469757e-07
7.89491710861e-08
1.68291516191e-07
1.18975575972e-07
2.44556223267e-07
1.76315227075e-07
3.49956628383e-07
2.57111142202e-07
4.93646613813e-07
3.69406041389e-07
6.87549047796e-07
5.23911080525e-07
9.47866969738e-07
7.35508019976e-07
1.29743683482e-06
1.02541947866e-06
1.76813570171e-06
1.42272188162e-06
2.40739727586e-06
1.97112491674e-06
3.28081978988e-06
2.72799325333e-06
4.49928884909e-06
3.77892147762e-06
6.57861346143e-06
5.8236717158e-06
)
;

boundaryField
{
    inletfuel
    {
        type            calculated;
        value           uniform 0;
    }
    inletair
    {
        type            calculated;
        value           uniform 0;
    }
    outlet
    {
        type            calculated;
        value           nonuniform List<scalar> 
26
(
0.127864913148
0.127754637187
0.12751246516
0.127171305298
0.126400951172
0.124684504358
0.122119434688
0.118571531192
0.113919834621
0.10807151093
0.100976787871
0.0926427677481
0.0831438812896
0.0726270611177
0.0613075962196
0.049450993024
0.0373653133328
0.0253692667095
0.0136842178083
0.0046309299863
0.00131208797895
0.000478335573765
0.000290503431009
0.000456023284242
0.000967705319663
0.00120781960814
)
;
    }
    axis
    {
        type            empty;
    }
    leftside
    {
        type            calculated;
        value           nonuniform List<scalar> 
65
(
1.11497043364e-08
1.05662016335e-08
9.89142567342e-16
5.25217815505e-14
1.64271646151e-12
1.05662016335e-08
7.54855517927e-09
5.8294898044e-09
4.63300811591e-09
3.67937979125e-09
3.12778939497e-09
2.90419369205e-09
2.79351576563e-09
2.75436184531e-09
2.76495779699e-09
2.81515087923e-09
2.8996461782e-09
3.01632920961e-09
3.16537636008e-09
3.34873241617e-09
3.56945562407e-09
3.8325079814e-09
4.14168868386e-09
4.50331795019e-09
4.9263008753e-09
5.42294046896e-09
6.00796120156e-09
6.69964212488e-09
7.52092237944e-09
8.50060623542e-09
9.67514960714e-09
1.10909100323e-08
1.28071939387e-08
1.49019608704e-08
1.74714003316e-08
2.06483254804e-08
2.46051799714e-08
2.95706819173e-08
3.58530218081e-08
4.38779410321e-08
5.42172886955e-08
6.76619479056e-08
8.53182039368e-08
1.08711408924e-07
1.39968952705e-07
1.82114454985e-07
2.39325454088e-07
3.17708793343e-07
4.262645634e-07
5.79071467962e-07
7.99486008446e-07
1.13119400606e-06
1.65866003018e-06
2.56386029192e-06
4.22876500625e-06
7.46001754651e-06
1.38544303113e-05
2.64545441023e-05