/*--------------------------------*- C++ -*----------------------------------*\
  =========                 |
  \\      /  F ield         | OpenFOAM: The Open Source CFD Toolbox
   \\    /   O peration     | Website:  https://openfoam.org
    \\  /    A nd           | Version:  dev
     \\/     M anipulation  |
\*---------------------------------------------------------------------------*/
FoamFile
{
    version     2.0;
    format      ascii;
    class       volScalarField;
    location    "0.3";
    object      edc::R_C2H4;
}
// * * * * * * * * * * * * * * * * * * * * * * * * * * * * * * * * * * * * * //

dimensions      [1 -3 -1 0 0 0 0];

internalField   nonuniform List<scalar> 
1629
(
3.82024765424e-28
4.19715193365e-28
4.62562134107e-28
8.29184174565e-24
1.79972685838e-23
7.58412567672e-23
4.81702194403e-20
2.49699980979e-19
4.25204270215e-18
1.45052047557e-16
1.80824091729e-15
9.32009123807e-14
3.37494687868e-14
3.96838016906e-13
9.91761223271e-12
4.58841257171e-12
4.90345041889e-11
8.34454544976e-10
3.98372598515e-10
3.73282912021e-09
4.56071175197e-08
1.64822342009e-08
1.21502215647e-07
1.1509382922e-06
6.50357664677e-08
1.79185937116e-07
-4.93592109336e-07
4.43886401699e-08
-1.34752063823e-07
-1.7435788278e-06
-7.2862758348e-08
-2.94261764686e-07
2.64573006553e-08
9.77408527901e-08
4.89015511661e-07
3.57586838446e-06
1.23651536314e-06
2.91021981126e-06
1.02699841456e-05
3.68901586015e-06
6.98922868486e-06
1.95294961735e-05
7.96312287023e-06
1.35442199095e-05
3.42880877327e-05
1.43678574874e-05
2.22529171453e-05
4.89984195382e-05
2.18177266707e-05
3.07524254054e-05
5.72508641042e-05
2.81757608608e-05
3.68451248821e-05
6.03038435995e-05
3.19612405774e-05
3.96742742003e-05
6.01523939411e-05
3.34008443654e-05
4.02523015681e-05
5.92896830463e-05
3.38519450608e-05
4.05802084018e-05
5.98732577174e-05
3.45721539884e-05
4.17630139182e-05
6.2518180503e-05
3.60052595996e-05
4.39385840418e-05
6.6236644333e-05
3.78997456893e-05
4.63800441503e-05
6.8764469259e-05
3.98860792201e-05
4.84085471809e-05
6.85307688466e-05
4.17431197766e-05
4.95810129036e-05
6.54616846328e-05
4.34319987906e-05
4.96356551006e-05
6.02327515892e-05
4.41793548453e-05
4.83043027011e-05
5.44213575808e-05
4.37624350001e-05
4.61851217616e-05
4.91248926041e-05
4.25002009598e-05
4.39127733487e-05
4.61155589914e-05
4.15312016897e-05
4.27806615667e-05
4.54757134709e-05
4.14332943342e-05
4.29097517583e-05
4.63590026709e-05
4.23760104291e-05
4.4129016457e-05
4.82365594761e-05
4.42739043164e-05
4.62445648345e-05
5.08991012696e-05
4.71989574089e-05
4.9454610394e-05
5.46336822609e-05
5.16324337841e-05
5.41559491725e-05
6.00435431031e-05
5.84904086098e-05
6.15059971093e-05
6.87541836601e-05
7.01527104089e-05
7.42059835706e-05
8.43136719976e-05
9.18886016609e-05
9.81677693154e-05
0.000114019766842
0.00013419381939
0.000144571901364
0.000170501741663
0.000214531887218
0.000231494099742
0.00027329394915
0.00035967879249
0.00038664876987
0.000451957274767
0.00061296096719
0.000654832192894
0.000754971679184
0.00105002914491
0.00111455936052
0.00126750989352
0.00180665520521
0.00190629800226
0.00214078799603
0.00312043740062
0.00327451655274
0.00363481207512
0.0053795266396
0.00561590204189
0.00616513461023
0.00914154328764
0.00949499947478
0.0103107233355
0.0150289334984
0.0155318292176
0.0166837238912
0.0233796170547
0.0240423778023
0.025548400517
0.0337137496392
0.034506113031
0.0362924980418
0.0444969113829
0.0453516312409
0.0472657096341
0.05371098642
0.0545562749153
0.0564405158262
0.0599631964909
0.0607575231239
0.0625241846675
0.0631618706313
0.0638985509388
0.0655362459207
0.0640697565513
0.0647532660433
0.0662702657492
0.0632076738076
0.063826801463
0.0651976647681
0.0602221887075
0.0607458415959
0.0618993354396
0.0540951517894
0.0544802642549
0.0553206056959
0.0433919990978
0.0435749495959
0.0439589656157
0.0267212247417
0.0266147464338
0.0263451501941
0.00181126724881
0.00124601836537
-6.21859429436e-05
-0.0345183196022
-0.0358309018032
-0.038829179258
2.1731644214e-12
1.07198930207e-10
6.69919771769e-09
2.86524836244e-07
7.53887978926e-06
-1.63263816206e-05
-6.34738065491e-06
7.38290511093e-06
1.32825736414e-05
3.1179699141e-05
5.41973453194e-05
9.49052870068e-05
0.000117576625956
0.000109854900889
0.000104556819206
0.00010106083039
9.93361052583e-05
0.000101759727085
0.000105946874077
0.000109361239666
0.000106189617853
9.55272175732e-05
8.05218053141e-05
6.60388505189e-05
5.52782562259e-05
4.95558663787e-05
4.82758155355e-05
4.95400341937e-05
5.18466765381e-05
5.46224757729e-05
5.80190890901e-05
6.26027937721e-05
6.9423056346e-05
8.0904935389e-05
0.000102115627677
0.000142168945097
0.000215706753381
0.000344102066344
0.000559894259555
0.00091747287086
0.0015122983555
0.002511758851
0.00419870960369
0.00701529231285
0.0115585224948
0.0184231201491
0.0277919967973
0.0389197534708
0.0500509136075
0.0591629738188
0.0650681774489
0.067891855666
0.068448218709
0.0671576586145
0.0635362142309
0.0564951737582
0.0444610582687
0.0258819101497
-0.00206779036562
-0.0433422343442
1.65503010534e-18
2.43658211598e-18
4.09812245307e-18
6.01059606665e-18
4.95087241001e-18
2.5606406264e-18
9.24664458041e-19
2.48680424355e-19
5.23642235069e-20
8.87637226221e-21
1.22866226767e-21
1.40287282687e-22
1.33220902051e-23
1.06041953346e-24
7.13618782832e-26
4.10389490728e-27
2.04762401501e-28
9.03266829583e-30
3.6690236618e-31
2.65471484136e-32
3.92074768918e-17
5.35261739894e-17
9.57181504833e-17
1.48044628076e-16
1.11739687065e-16
5.09414672046e-17
1.60658587789e-17
3.78440813652e-18
7.05847370276e-19
1.06889303183e-19
1.33260242255e-20
1.38255975109e-21
1.20464409768e-22
8.89351888216e-24
5.61922260403e-25
3.07764055148e-26
1.48875157574e-27
6.5134985616e-29
2.67382105953e-30
2.01119935306e-31
2.38129448226e-15
7.68042075856e-16
1.41003504809e-15
2.03696615373e-15
1.3932575787e-15
5.8144714368e-16
1.62111862756e-16
3.42872034749e-17
5.80902403362e-18
8.04307870921e-19
9.23593282343e-20
8.89655111829e-21
7.25777249844e-22
5.0614181869e-23
3.05002636205e-24
1.61104043444e-25
7.61762634329e-27
3.32858340066e-28
1.38933733887e-29
1.04042725256e-30
6.73208737197e-13
5.17409403918e-14
2.84549943054e-14
2.98012145309e-14
1.61616917137e-14
5.76596789225e-15
1.26086586237e-15
2.61668118692e-16
4.14347080495e-17
5.40168417033e-18
5.88176295958e-19
5.40991035523e-20
4.24226435172e-21
2.86210497991e-22
1.67946154157e-23
8.70081733198e-25
4.07118911827e-26
1.78501039549e-27
7.75514369284e-29
6.88118451495e-30
1.02690465223e-10
3.29094305478e-12
1.21801208161e-12
4.68478797467e-13
1.76987890586e-13
5.28365388409e-14
1.22095599276e-14
1.74572656033e-15
2.9152428844e-16
3.56079606503e-17
3.67634361703e-18
3.23817536506e-19
2.45288795818e-20
1.61083360356e-21
9.26471107595e-23
4.73668387026e-24
2.2036485722e-25
9.7147069399e-27
4.40888906302e-28
4.94750862408e-29
2.20083491693e-08
2.37905512235e-09
1.63875813404e-10
1.19802675476e-11
2.35151405587e-12
5.12367790859e-13
9.85904800733e-14
1.59016210364e-14
1.72505769499e-15
2.21288419184e-16
2.16831002027e-17
1.83494940218e-18
1.34870954164e-19
8.66430719374e-21
4.90812066934e-22
2.48643225448e-23
1.15292315493e-24
5.10377111792e-26
2.39157113932e-27
2.96519833427e-28
2.33189816824e-06
1.65546746648e-06
6.93010829815e-08
2.34885037482e-09
6.9577374146e-11
5.99665189003e-12
7.72246892562e-13
1.04898430272e-13
1.29411948097e-14
1.22977524559e-15
1.16703097639e-16
9.57474616159e-18
6.88786251325e-19
4.36226553296e-20
2.44978842249e-21
1.23566146959e-22
5.72315037972e-24
2.5369905066e-25
1.20996648195e-26
1.52275912481e-27
0.00057051536986
-0.00909106618179
4.36466177525e-05
2.39917028358e-08
2.31100198906e-09
8.01421312138e-11
5.59843339297e-12
5.83558399905e-13
6.21162216108e-14
6.63823696295e-15
5.51111768296e-16
4.46179685459e-17
3.19171812752e-18
2.01830856621e-19
1.13473428024e-20
5.73778362069e-22
2.66326161207e-23
1.18007311328e-24
5.67074010406e-26
6.82582380514e-27
-0.000155444068558
0.434258449465
7.87299808499e-05
-2.73054537222e-06
-2.02748003435e-08
5.87493381761e-11
1.93413179218e-11
2.19215149117e-12
2.4753342938e-13
2.58740797501e-14
2.08767175944e-15
1.80809066062e-16
1.31690600708e-17
8.4617337428e-19
4.82382101052e-20
2.46655964986e-21
1.15269675312e-22
5.10651431799e-24
2.45936155396e-25
2.72452972446e-26
0.000142728195443
0.0255293916776
9.13152624487e-05
-2.21645380685e-06
-6.35127382465e-08
-7.49105572492e-10
2.40133127028e-11
5.24552599684e-12
6.90695364609e-13
7.56439485267e-14
6.76128478248e-15
6.35739504541e-16
4.82304709085e-17
3.20356741963e-18
1.87485976789e-19
9.77740237177e-21
4.62365040015e-22
2.05155651344e-23
9.88491141834e-25
9.87345320595e-26
0.000129799546286
0.00209572975133
0.00013741371943
-5.11782184696e-06
-2.78954748132e-07
-6.26969742662e-09
-6.66182260572e-11
9.27609417457e-12
1.70397157021e-12
2.1936166864e-13
2.39750375187e-14
2.00389771866e-15
1.59568121203e-16
1.10520229455e-17
6.68877326307e-19
3.57800874858e-20
1.71894112453e-21
7.65725352751e-23
3.69227430915e-24
3.2955302652e-25
4.57559936806e-05
0.0200840930369
-0.0298127229145
-6.37464788893e-06
-3.90364785316e-06
-6.69911109088e-08
-1.01111922643e-09
-3.34122214133e-12
3.27520851823e-12
5.49917791926e-13
6.48949215182e-14
5.1777004932e-15
4.85895651278e-16
3.50769866233e-17
2.20047568444e-18
1.2112739441e-19
5.92992295542e-21
2.65950528202e-22
1.28556216094e-23
1.02332093575e-24
0.000224141972858
0.0359254180803
-0.141302249337
0.00037571268397
-4.74639804968e-06
-2.8748619744e-07
-8.96857337869e-09
-3.66502502724e-10
-8.95151525719e-12
7.54524949472e-13
1.39584154683e-13
1.61871590754e-14
1.33837812173e-15
1.01604262362e-16
6.6528278619e-18
3.78843178824e-19
1.89819303131e-20
8.60667395955e-22
4.18350184365e-23
2.97874698612e-24
0.000271256732495
0.00277094872331
3.34628590004
-0.00637741783908
-9.7869386377e-05
-3.76291011855e-06
-1.0318446174e-07
-4.41518365145e-09
-1.85029410684e-10
-3.90428681258e-12
2.00988337266e-13
3.69346766954e-14
3.32403069051e-15
2.68487976484e-16
1.84853633842e-17
1.09516890483e-18
5.64389272559e-20
2.60019906765e-21
1.27610857929e-22
8.18047607935e-24
0.000477655265094
-0.00251761652787
7.15231756054
-0.0052123391225
-0.000136469474745
-9.0922075031e-06
-5.61480599591e-07
-2.77280535948e-08
-1.31222922449e-09
-4.39301438481e-11
-5.2878932257e-13
6.20610813361e-14
6.60916502177e-15
6.52901767102e-16
4.74774685579e-17
2.93747640272e-18
1.56348227007e-19
7.35597493871e-21
3.66107672719e-22
2.1315195537e-23
0.000456756544225
-0.000204584630367
1.1597398667
-1.05891955252
-0.00830937762676
-0.000222961757492
-4.08524884078e-06
-1.13992204052e-07
-5.5080765273e-09
-2.20426784427e-10
-5.4729389251e-12
2.11512570783e-14
1.34891585855e-14
1.4598664257e-15
1.13024550109e-16
7.33372650427e-18
4.04829265883e-19
1.95509384032e-20
9.91285412848e-22
5.29444891084e-23
0.00027638527461
-0.000992078543877
0.325729559496
-0.580240849668
-0.00946579871298
-0.000277275512537
-8.85661216177e-06
-2.59545586236e-07
-1.47189516026e-08
-7.62868638905e-10
-2.60307027686e-11
-3.68669709485e-13
2.43533280201e-14
2.96580839381e-15
2.49560562075e-16
1.70880638193e-17
9.82844705958e-19
4.8981349062e-20
2.54157215377e-21
1.25861142941e-22
0.000246654894301
8.95632120931e-05
0.0928518016922
-0.414100095421
-0.00421179424432
-0.00014553143064
-8.40617157028e-06
-3.78216019867e-07
-2.84747810177e-08
-1.82121165301e-09
-8.41213072854e-11
-2.10475129515e-12
1.46599343271e-14
5.20807890748e-15
5.13485499448e-16
3.73600421753e-17
2.24765519498e-18
1.16137621633e-19
6.1925312602e-21
2.8738778177e-22
0.000224617057482
0.000325294903935
0.0345580301587
2.51148306224
-0.00229152451698
-5.65460199043e-05
-4.73923438731e-06
-4.66700477847e-07
-4.69794476451e-08
-3.98130966618e-09
-2.28156562348e-10
-7.86768499079e-12
-8.81209774067e-14
6.81587451853e-15
9.84755113549e-16
7.7048168012e-17
4.86603377395e-18
2.61732752513e-19
1.4390942625e-20
6.32400624312e-22
0.000201596113079
0.000272066335834
0.019348263113
4.27354015329
-0.00649095612945
-0.000105205662655
-4.88659523802e-06
-6.79722236982e-07
-8.34992771275e-08
-8.35876419053e-09
-5.80525473799e-10
-2.30303951278e-11
-5.29156100626e-13
5.38206968249e-15
1.7375147919e-15
1.50230488447e-16
1.00132556598e-17
5.62814584759e-19
3.20065288677e-20
1.34493083873e-21
0.000181300633559
0.000168553286708
0.0120738615615
4.75205854046
-1.4247974988
-0.0125723285852
-0.000377761592244
-9.45288692014e-06
-2.64320199865e-07
-1.95407976168e-08
-1.43256118593e-09
-6.97887646235e-11
-2.02538130294e-12
-1.14060779347e-14
2.71043617602e-15
2.77338356168e-16
1.9670682705e-17
1.15937796184e-18
6.83548311399e-20
2.77141843328e-21
0.000154676433391
0.00010773482026
0.00718545296962
2.4920929724
-1.10675710071
-0.0153258475967
-0.00040301310021
-1.57716768239e-05
-4.65509190998e-07
-3.76543171163e-08
-3.15039026022e-09
-1.85448406282e-10
-6.41177461148e-12
-1.00112252237e-13
3.29099908796e-15
4.84492442461e-16
3.70912648161e-17
2.29865504496e-18
1.40696415741e-19
5.54801343512e-21
0.000129296347046
0.000156000075554
0.0044026147636
0.772315748219
-0.896584338722
-0.00625218003862
-0.000170967798216
-9.04344737338e-06
-5.39717551675e-07
-5.62394790101e-08
-5.83675217327e-09
-4.05279089786e-10
-1.77744009877e-11
-3.86668929459e-13
3.57955453247e-16
7.89339008851e-16
6.73599584184e-17
4.40484193628e-18
2.8009162679e-19
1.0815858615e-20
0.000103312038662
0.000174139340261
0.00287748680875
0.286896928179
0.474545986432
-0.00537583772713
-8.86384679742e-05
-4.96048856734e-06
-5.57622037153e-07
-7.32476424357e-08
-9.71845053751e-09
-8.13949502327e-10
-4.40366495954e-11
-1.23745863158e-12
-1.4294273859e-14
1.14055076152e-15
1.17494147859e-16
8.17291514057e-18
5.404614521e-19
2.05629923261e-20
8.12015661828e-05
0.000162725052571
0.00204442315345
0.141077817822
2.11071029299
-0.628780010872
-0.00581379852755
-0.000183931526974
-4.48829570151e-06
-1.70646187562e-07
-1.70993291131e-08
-1.56417780454e-09
-8.7988754796e-11
-3.45099813001e-12
-6.15230410009e-14
1.22573283181e-15
1.94643172958e-16
1.46652101452e-17
1.01109544186e-18
3.81196903235e-20
6.63598239885e-05
0.000144455794563
0.00159404319499
0.0854526347895
3.37394558998
-0.8247686697
-0.0104555447119
-0.000330743087735
-1.09915758562e-05
-3.0759395141e-07
-2.84133712066e-08
-2.92966605491e-09
-1.90571490992e-10
-8.63871906512e-12
-1.95526845339e-13
-4.36472027844e-18
2.99484738706e-16
2.53723291774e-17
1.83224983763e-18
6.88183891201e-20
5.90914427964e-05
0.000135120116635
0.00138173385945
0.0587594642354
3.22086421231
-1.08166072333
-0.0129462118489
-0.000283953333565
-1.0238737474e-05
-3.83916511721e-07
-3.93763576972e-08
-4.68857608491e-09
-3.94968470071e-10
-1.9591054969e-11
-5.47036768458e-13
-5.40613445178e-15
4.08947065977e-16
4.22055830698e-17
3.21511596524e-18
1.20871564872e-19
5.88633026768e-05
0.000139306086543
0.00128766250894
0.0420367838142
2.41413947969
-1.21087402195
-0.0132200775347
-0.000134257977832
-5.68882931694e-06
-3.70319304705e-07
-4.66617858545e-08
-6.83519498077e-09
-7.05825653025e-10
-4.09273913335e-11
-1.25725702344e-12
-2.23431148445e-14
4.29483731194e-16
6.72122595142e-17
5.46755169447e-18
2.06563652243e-19
6.22589840924e-05
0.000146248718226
0.00122226624147
0.0310039327501
1.64232700486
-0.964729818179
-0.0253466751883
-7.68223462154e-05
-3.27951975268e-06
-3.27541792634e-07
-5.00626718217e-08
-9.0331721457e-09
-1.05665698765e-09
-7.9591950222e-11
-2.90144161178e-12
-6.74860213402e-14
8.0504792098e-17
1.01384910122e-16
9.02382553375e-18
3.43847882436e-19
6.62306387186e-05
0.000150809523771
0.00118250161573
0.024255629487
1.11074694385
0.182503735364
-0.323206290045
-0.00458292698457
-0.00013795410522
-3.32538886378e-06
-1.15364416031e-07
-1.35777640598e-08
-1.65371254465e-09
-1.43594978905e-10
-6.38903712265e-12
-1.75960195575e-13
-1.387510711e-15
1.40711448894e-16
1.44553903776e-17
5.58042095914e-19
6.95124330701e-05
0.000154630232612
0.00116504782277
0.0197244709579
0.746466767127
1.39612226977
-0.518083081059
-0.0084192621644
-0.000254126758552
-7.78848807289e-06
-2.00686705437e-07
-2.00427235635e-08
-2.58341429977e-09
-2.27895108526e-10
-1.31987776245e-11
-4.1774913167e-13
-5.78751915039e-15
1.65342584941e-16
2.23962108321e-17
8.82500864258e-19
7.21825534287e-05
0.000161553333435
0.00118514917614
0.0169034037988
0.527466729652
1.9984421906
-0.791582535748
-0.0140580416579
-0.000287204009577
-8.52486888733e-06
-2.71015626068e-07
-2.6786103832e-08
-3.74759949349e-09
-3.38736324828e-10
-2.55836330721e-11
-9.26545018074e-13
-1.71246762108e-14
1.15029771082e-16
3.3307283445e-17
1.35777633005e-18
7.5269946768e-05
0.000176300033883
0.00126239715295
0.0154961987691
0.394506382739
2.14031362746
-1.00306530871
-0.0320658819512
-0.000268109968754
-8.19397606339e-06
-3.19134610785e-07
-3.20642541982e-08
-5.06870460142e-09
-5.80960936838e-10
-4.65063522603e-11
-1.93839044812e-12
-4.36594975961e-14
-1.63636583995e-16
4.69256830415e-17
2.02979962591e-18
8.01100121991e-05
0.000203209104715
0.00139769996883
0.0149340866002
0.314411312563
2.05916112909
-1.11786924367
-0.10958606636
-0.00154213743717
-4.22512421176e-05
-9.89354533785e-07
-5.22262113486e-08
-7.05377746217e-09
-9.47351528955e-10
-7.98932143203e-11
-3.23916474643e-12
-1.01736938902e-13
-1.02663802297e-15
6.09406893983e-17
2.94546696451e-18
8.80698430204e-05
0.000245314061006
0.00157152773038
0.014600450001
0.251333942114
1.77447998586
-1.12627338953
-0.085734152149
-0.00274419700892
-8.87893173641e-05
-2.26354187942e-06
-8.29950977739e-08
-9.60335627441e-09
-1.33327946553e-09
-1.30980600965e-10
-5.87223826848e-12
-2.21617681909e-13
-3.24275650244e-15
6.79420615286e-17
4.13914589051e-18
0.000101472335512
0.000307972371525
0.00179970908879
0.0146998892302
0.210235439754
1.51223275319
-0.553108463527
-0.181306258451
-0.00481538392341
-0.000157253762646
-4.17720454068e-06
-1.17132258341e-07
-1.26658717853e-08
-1.78857326694e-09
-2.03796140858e-10
-1.08823364445e-11
-4.54294376046e-13
-8.37053304887e-15
4.87765918578e-17
5.59352888614e-18
0.000125124091959
0.000401723090026
0.00211760864787
0.0154103439538
0.186417423793
1.30740984286
-0.00588219875679
-0.335849041376
-0.00992817124449
-0.000232773404482
-5.88988160475e-06
-1.61698678027e-07
-1.57819131358e-08
-2.36248325848e-09
-2.95078346783e-10
-1.92274607949e-11
-8.83680139148e-13
-1.93915568903e-14
-4.06258532341e-17
7.15213526937e-18
0.000167492206343
0.000541933732353
0.00256841249816
0.0168438704686
0.174716661148
1.1552963447
0.340264299209
-0.490062456027
-0.0299904218144
-0.000303440746132
-7.86689347443e-06
-2.19677627771e-07
-1.91176150461e-08
-3.02319280461e-09
-3.89912662387e-10
-3.22340244472e-11
-1.64221702545e-12
-4.17512550255e-14
-2.94361236631e-16
8.33047867973e-18
0.000241449912699
0.000749488144109
0.00320391896329
0.0190980251562
0.17108995221
1.03031350217
0.561882013997
-0.619763413806
-0.0519660119354
-0.000901576638505
-2.41283735444e-05
-5.1758597557e-07
-2.76092948973e-08
-3.84031912425e-09
-5.05573115461e-10
-5.16444364422e-11
-2.92220905829e-12
-8.48672210791e-14
-9.00317835943e-16
7.94892768597e-18
0.000364974015129
0.00105388411489
0.00409293442622
0.0222833863913
0.172317357901
0.912710996654
0.711556460637
-0.729831353545
-0.0518547299908
-0.0014308114067
-4.50180506024e-05
-1.0227171935e-06
-4.03107038682e-08
-4.98447640716e-09
-6.75107626699e-10
-7.92813084114e-11
-4.99523903546e-12
-1.64040842145e-13
-2.21327403484e-15
3.36153113108e-18
0.000564139307499
0.00150147472504
0.00534455630084
0.0266207054448
0.176821494958
0.812305653095
0.782989008301
-0.818142893511
-0.0595637009835
-0.00218376032112
-7.44738612819e-05
-1.73483628231e-06
-5.54734616585e-08
-6.08677075746e-09
-9.07566192221e-10
-1.14153952783e-10
-7.86341034989e-12
-3.02632290719e-13
-4.86696834362e-15
-1.10512814351e-17
0.000880680522898
0.00216864771722
0.00713244187307
0.0324465791357
0.1838988619
0.726424601866
0.789715607964
-0.876773998912
-0.0663135574817
-0.00366885200757
-0.0001185293774
-2.74014582914e-06
-7.20524497057e-08
-7.25786561152e-09
-1.12776868027e-09
-1.57994952654e-10
-1.01891936974e-11
-5.34940049106e-13
-9.94011212276e-15
-4.66796090188e-17
0.00138572631241
0.00318186373259
0.00972146492711
0.0401676444286
0.192995154175
0.653384565935
0.753624364882
-0.900741903312
-0.0710714215601
-0.00674432734101
-0.000178222620207
-4.08108480217e-06
-9.90017261958e-08
-8.56610240495e-09
-1.36092665414e-09
-2.10922058915e-10
-1.36432000549e-11
-9.15055149018e-13
-1.91902343595e-14
-1.25750434718e-16
0.0022022503484
0.00474768593134
0.0134948569051
0.0501957994363
0.203644422977
0.593287093805
0.698863676681
-0.866245166751
-0.0805681321541
-0.00825181746749
-0.000366401282499
-9.06425534976e-06
-1.80355540866e-07
-1.09505415797e-08
-1.6537526972e-09
-2.71068871791e-10
-1.86394551381e-11
-1.50859727407e-12
-3.53450380643e-14
-2.90300763385e-16
0.00353937713272
0.00719086941915
0.0189580064917
0.0627988184481
0.215171275978
0.544846094791
0.642026777006
-0.787143661237
-0.0999394041329
-0.00801544538864
-0.000561983796936
-1.75416210075e-05
-3.49133684896e-07
-1.50695072346e-08
-1.98893178086e-09
-3.38254042418e-10
-2.55363698036e-11
-2.39933522097e-12
-6.23681731342e-14
-6.1653689419e-16
0.00573639274422
0.0109842739456
0.0266762656013
0.0778615037593
0.226311363705
0.50377898867
0.582675106177
-0.713089627869
-0.122957996569
-0.00975992730279
-0.00071293063443
-2.83768613544e-05
-5.85409439994e-07
-2.05381404944e-08
-2.39148518022e-09
-4.12928219287e-10
-3.45095644227e-11
-3.68216114224e-12
-1.05619448435e-13
-1.23644330256e-15
0.00929555942664
0.0167277558689
0.0370970366939
0.0946941954979
0.235696101596
0.467352881093
0.515957930807
-0.656134415753
-0.142828133115
-0.0117914412307
-0.000852115323631
-4.74101062137e-05
-9.91724299277e-07
-2.85214199189e-08
-2.87830959911e-09
-4.93243688156e-10
-4.56158309531e-11
-5.45615729104e-12
-1.72110189723e-13
-2.36933065463e-15
0.0148412185899
0.0249904371056
0.0502163169934
0.111952274576
0.242032307069
0.433181150114
0.450790807347
-0.620563066648
-0.155043487506
-0.0133679572298
-0.00112826218849
-7.0735260296e-05
-1.8354936719e-06
-4.37019017681e-08
-3.49086824199e-09
-5.82331824311e-10
-5.90727509906e-11
-7.81864739317e-12
-2.71066536584e-13
-4.36618107859e-15
0.0228955299272
0.0359406063013
0.065207183114
0.127830092362
0.244404517566
0.399899308375
0.385488126773
-0.606091252006
-0.157155745329
-0.0141034673802
-0.00145965040535
-0.000100693281637
-3.57921468344e-06
-7.76316427873e-08
-4.54952814916e-09
-6.9019901394e-10
-7.54578720856e-11
-1.0863802592e-11
-4.12514840973e-13
-7.76622613127e-15
0.0334145462362
0.0488718584501
0.0803401709581
0.1405300144
0.242400197333
0.366620719084
0.319070562521
-0.607333109426
-0.148792496902
-0.013915995374
-0.00143525275952
-0.000137400858152
-6.93253455175e-06
-1.56510626739e-07
-6.77576130472e-09
-8.35207555217e-10
-9.59002464834e-11
-1.4698349562e-11
-6.078277165e-13
-1.33590418268e-14
0.0453358930648
0.0620611674378
0.0934742293706
0.148806815058
0.236143033498
0.332603361297
0.250407047104
-0.616210384706
-0.131094128809
-0.0128302704412
-0.00123771739656
-0.000163656278559
-1.18092994815e-05
-3.24319010778e-07
-1.08251186582e-08
-1.06140127998e-09
-1.22434841834e-10
-1.94792432336e-11
-8.69247863352e-13
-2.22426989876e-14
0.0567025038767
0.0733556376148
0.102927214556
0.152317979412
0.22621383531
0.297268227861
0.177993632173
-0.623112728109
-0.106920090615
-0.0106770101304
-0.00111024649763
-0.000179486721229
-1.74294608103e-05
-6.05662261995e-07
-1.8077929111e-08
-1.41823802673e-09
-1.58769049971e-10
-2.54695784952e-11
-1.21029233512e-12
-3.58705908335e-14
0.0655636967793
0.0812107129662
0.10813520436
0.151709597636
0.213576077927
0.260402126194
0.097324207675
-0.591815978901
-0.0859118535094
-0.008718393961
-0.00100884415336
-0.000196386581502
-2.33163804706e-05
-1.05567837091e-06
-3.07101874776e-08
-1.98045069346e-09
-2.10977731982e-10
-3.30935015382e-11
-1.64676167067e-12
-5.60856602618e-14
0.0710003499808
0.0853572037699
0.109680995296
0.148022113823
0.19865046102
0.220060667564
-0.000966272111624
-0.510616751421
-0.073395944762
-0.00811668250484
-0.000994433043639
-0.000219302467901
-2.91360075609e-05
-1.72404569053e-06
-5.31222129997e-08
-2.87670564435e-09
-2.88700592658e-10
-4.29762489289e-11
-2.1979792879e-12
-8.51502522812e-14
0.0733581193029
0.0865105678645
0.108426835371
0.141554850693
0.179793399612
0.170808778083
-0.121027956977
-0.419112684482
-0.0650102244047
-0.00807383689585
-0.00104309196125
-0.000243333497421
-3.48025087721e-05
-2.66638178441e-06
-9.79767106293e-08
-4.37559049772e-09
-4.06204969119e-10
-5.59224207476e-11
-2.88759995483e-12
-1.25821095263e-13
0.0734690064119
0.085404632384
0.104661750632
0.131552320088
0.1544368183
0.1083783134
-0.254228716406
-0.325164713933
-0.0551118554078
-0.00771616934305
-0.00107919088066
-0.000257177417032
-4.00409976671e-05
-3.90584431513e-06
-1.71768488804e-07
-6.81614949875e-09
-5.88502165263e-10
-7.29890380624e-11
-3.7445522852e-12
-1.81546678335e-13
0.0716202229587
0.0819713236771
0.0976831297866
0.116336304121
0.119813196431
0.0299351939391
-0.380253611134
-0.226677684315
-0.0423106619337
-0.00669509561458
-0.00103750558401
-0.000256685440238
-4.37179925225e-05
-5.32658972206e-06
-2.9396078416e-07
-1.09137774131e-08
-8.42614753206e-10
-9.5446596573e-11
-4.80511636379e-12
-2.56976693361e-13
0.0671799543133
0.0752489905713
0.0860486924138
0.0939105207835
0.0733436178091
-0.0678631551272
-0.448501728691
-0.135110354373
-0.0281143494762
-0.00505946410608
-0.000887046132109
-0.000240463940798
-4.54956595418e-05
-6.82614228704e-06
-4.74778913228e-07
-1.82931373109e-08
-1.18267720544e-09
-1.24804930288e-10
-6.11777127605e-12
-3.59054111434e-13
0.058987082011
0.0639367330824
0.0682857052463
0.0623319820456
0.00999761731813
-0.202951700174
-0.319580680092
-0.0844272408662
-0.0189946618097
-0.00378187171144
-0.000737279437026
-0.000216690134323
-4.55055282412e-05
-8.31521858816e-06
-7.19230697922e-07
-3.08086295379e-08
-1.69170840462e-09
-1.62433030365e-10
-7.75221125244e-12
-4.99015569753e-13
0.0452980743201
0.0458000645205
0.0410308337844
0.0155567527271
-0.0796144485793
-0.334815237738
-0.181346191992
-0.0512534345752
-0.0125746057747
-0.00276335282362
-0.000598232697886
-0.000190118177667
-4.42002728209e-05
-9.50927755979e-06
-1.00905895886e-06
-5.09863559858e-08
-2.42138493364e-09
-2.08936341939e-10
-9.80937600846e-12
-6.95764525309e-13
0.0243505391625
0.0184122095458
0.000130599335049
-0.0548879169592
-0.206671960961
-0.264644628888
-0.0932689094571
-0.0286820802441
-0.00776210305687
-0.00189314193018
-0.000459939977479
-0.000161319591918
-4.1773886145e-05
-1.02137209536e-05
-1.33915728987e-06
-8.21054697514e-08
-3.48496227984e-09
-2.6454625467e-10
-1.24419997104e-11
-9.809549889e-13
-0.00737465750788
-0.0236765672711
-0.0632442421557
-0.157317902582
-0.263225144659
-0.116264223477
-0.0442637080317
-0.0148426612677
-0.00443405207005
-0.0012000707562
-0.000330703497743
-0.000131471468383
-3.8334482193e-05
-1.0390198202e-05
-1.68618252159e-06
-1.29909252525e-07
-5.0839666895e-09
-3.28485819982e-10
-1.58534486794e-11
-1.41380373822e-12
-0.0546501449718
-0.0867470833139
-0.151866640873
-0.193881272188
-0.101742106097
-0.0471658784915
-0.0194406711278
-0.00713848688477
-0.00235546316674
-0.000708851714762
-0.000224286431051
-0.000104562712649
-3.50137757879e-05
-1.03244054173e-05
-2.03093451158e-06
-1.90127883304e-07
-7.381440969e-09
-3.90027757763e-10
-2.00655026397e-11
-2.09648061206e-12
3.2683989871e-30
3.01174521989e-31
2.07800775434e-29
2.7064070744e-30
1.12357467591e-28
1.54998956438e-29
4.89743539157e-28
5.89370572932e-29
1.76870695695e-27
1.84849234801e-28
5.66330807753e-27
5.29821468648e-28
1.67330839651e-26
1.43460733559e-27
4.6485324809e-26
3.7175050759e-27
1.22841823569e-25
9.29278148258e-27
3.11607290362e-25
2.25549618987e-26
7.63684420522e-25
5.34125905519e-26
1.81584773445e-24
1.22307825672e-25
4.19923197208e-24
2.72815160154e-25
9.4592390574e-24
5.96761318333e-25
2.07831996846e-23
1.27968384063e-24
4.45936529475e-23
2.69186595089e-24
9.35350069743e-23
5.55952810227e-24
1.91959302525e-22
1.12834177142e-23
3.85873729672e-22
2.25295593323e-23
7.60477286647e-22
4.43357728433e-23
1.46963606247e-21
8.58940746496e-23
2.781850388e-21
1.63419041364e-22
5.14699296153e-21
3.04717267528e-22
9.29138622051e-21
5.55837684941e-22
1.63521121469e-20
9.91120374117e-22
2.80576128059e-20
1.72939014749e-21
4.69476042892e-20
2.94714304345e-21
7.65347745026e-20
4.89654139117e-21
1.21352454944e-19
7.90882424376e-21
1.86907679768e-19
1.23727851319e-20
2.79428342867e-19
1.8631113726e-20
4.04799934665e-19
2.65938887009e-20
5.64902508886e-19
3.44575576482e-20
7.48062540794e-19
3.49006444636e-20
9.05395070037e-19
4.37888441978e-21
8.96542587853e-19
-1.25448873653e-19
3.61375489457e-19
-5.41045457428e-19
-1.56716202738e-18
-1.72599480855e-18
-6.87515240691e-18
-4.87822476656e-18
-1.9930787354e-17
-1.28429341248e-17
-5.0007571637e-17
-3.21127722381e-17
-1.16010618461e-16
-7.68982933387e-17
-2.54851969569e-16
-1.76979250139e-16
-5.35616492883e-16
-3.92063272113e-16
-1.082345432e-15
-8.36628128434e-16
-2.10812678153e-15
-1.72009981744e-15
-3.96127867247e-15
-3.40645946028e-15
-7.18137720051e-15
-6.49457732974e-15
-1.25601366519e-14
-1.19166921004e-14
-2.12046005203e-14
-2.10547063802e-14
-3.46065765303e-14
-3.58825426309e-14
-5.47548893215e-14
-5.91892197733e-14
-8.43617120779e-14
-9.50005591814e-14
-1.27398004689e-13
-1.49545729881e-13
-1.90175363818e-13
-2.33232274685e-13
-2.83172282022e-13
-3.63991930542e-13
-4.24853646648e-13
-5.75026882197e-13
-6.4651519591e-13
-9.24609197403e-13
-1.00599421617e-12
-1.51591649435e-12
-1.74183692167e-12
-2.94592916765e-12
)
;

boundaryField
{
    inletfuel
    {
        type            calculated;
        value           uniform 0;
    }
    inletair
    {
        type            calculated;
        value           uniform 0;
    }
    outlet
    {
        type            calculated;
        value           uniform 0;
    }
    axis
    {
        type            empty;
    }
    leftside
    {
        type            calculated;
        value           uniform 0;
    }