/*--------------------------------*- C++ -*----------------------------------*\
  =========                 |
  \\      /  F ield         | OpenFOAM: The Open Source CFD Toolbox
   \\    /   O peration     | Website:  https://openfoam.org
    \\  /    A nd           | Version:  dev
     \\/     M anipulation  |
\*---------------------------------------------------------------------------*/
FoamFile
{
    version     2.0;
    format      ascii;
    class       volScalarField;
    location    "0.3";
    object      edc::YStar_O2;
}
// * * * * * * * * * * * * * * * * * * * * * * * * * * * * * * * * * * * * * //

dimensions      [0 0 0 0 0 0 0];

internalField   nonuniform List<scalar> 
1629
(
1.47260517452e-09
1.51884308422e-09
1.38924801518e-09
1.89304283544e-07
2.98970391093e-07
6.00404977727e-07
1.23630969964e-05
3.28904599485e-05
0.000146372793507
0.000535305915547
0.00245258004833
0.0235033463952
0.00195137300454
0.00724685883073
0.0419685615332
0.0046944842093
0.0146370438867
0.0582544274016
0.00930754248129
0.0243541687419
0.0709051167633
0.0162220309753
0.0352703073324
0.0793809850989
0.0254148378146
0.0460694924812
0.084673198334
0.0363059380818
0.0560495251078
0.0883131214951
0.0479080852933
0.0650389805273
0.0913617283049
0.0592025269156
0.0730649065742
0.0941805633357
0.0694411281659
0.0801286972723
0.0967287421704
0.0782256059959
0.0861871955455
0.0989040946882
0.0854230351642
0.0911875591678
0.100622450404
0.0910742354523
0.0951345782379
0.101892609554
0.0953266787378
0.098099288277
0.102748658537
0.0983709259244
0.100186919369
0.10321557773
0.100394391518
0.101505452769
0.103304073455
0.101556452699
0.102147538207
0.10301463255
0.101984353191
0.102189767344
0.102350144777
0.101780984563
0.101700166199
0.101327896134
0.101031242867
0.100740119296
0.0999738026917
0.0998067172064
0.0993648394077
0.0983163879591
0.0981719306831
0.0976270213438
0.0963876015595
0.0961857376376
0.0955759744263
0.0942189619458
0.0938960437891
0.0932504893058
0.091831406031
0.091338757026
0.0906784207346
0.0892370408785
0.0885436231284
0.0878836368624
0.086448754193
0.0855422375154
0.0848943269379
0.0834888534092
0.0823693927482
0.081743151186
0.0803863586633
0.079057026313
0.0784594748716
0.0771655115862
0.0756325038846
0.0750679021276
0.0738451663483
0.0721214563072
0.071591941114
0.0704445471168
0.068547543141
0.0680538985506
0.0669833805387
0.064928989111
0.064470940584
0.0634767298334
0.0612792090395
0.060855644456
0.0599354185041
0.057610240455
0.0572194974336
0.0563697657825
0.0539354698688
0.0535756428202
0.0527924065554
0.0502687031952
0.0499378332908
0.0492169870182
0.0466212074497
0.0463172721435
0.0456545606398
0.0430008754027
0.0427218015622
0.0421128438491
0.0394127601731
0.0391565039412
0.0385969629237
0.035859738074
0.035624377313
0.0351101680941
0.0323424043401
0.0321262047604
0.0316536385574
0.0288583779247
0.0286598202973
0.0282256677877
0.0254027576488
0.0252206080742
0.0248222612548
0.0219709453993
0.0218044208218
0.021440264313
0.0185651825318
0.0184142012331
0.0180841649948
0.0152065367441
0.0150719707454
0.0147780674486
0.0119515322943
0.0118352304187
0.0115815702004
0.00890458792321
0.0088088425184
0.00860041142781
0.00620836940091
0.00613471762391
0.00597473728889
0.00399999144134
0.00394791602259
0.00383506221657
0.00235274130145
0.0023193135952
0.00224703472952
0.00124671339828
0.0012274755747
0.00118598310392
0.000586534035433
0.000576829347124
0.000555965994896
0.000242980236041
0.000238891987203
0.000230147245883
9.14904661178e-05
9.02375892406e-05
8.75881842629e-05
3.66341736536e-05
3.65488115137e-05
3.6389872274e-05
1.95827562032e-05
1.98017587916e-05
2.02668496561e-05
1.2132734332e-05
1.22553881313e-05
1.24827373739e-05
5.9510743854e-06
5.93877339847e-06
5.89717944045e-06
0.168085086535
0.150931545903
0.136860596951
0.128970089673
0.123137675601
0.118668523514
0.115616303838
0.113893042681
0.112797034969
0.111752464403
0.110591717362
0.109305113908
0.108062414112
0.106908373662
0.105798067546
0.104656381692
0.103405796355
0.101991519408
0.100396031264
0.0986183788154
0.0966625708598
0.094538586193
0.0922573258846
0.0898181770826
0.087215216068
0.0844499654939
0.0815395199843
0.0785096191721
0.0753782570207
0.0721569938446
0.068859823174
0.0655035679356
0.0621008447738
0.0586603227361
0.0551908096366
0.0517042728789
0.0482142316708
0.0447315415159
0.0412637359049
0.0378159822295
0.0343918515466
0.0309930468964
0.027618486897
0.0242650527066
0.0209310028074
0.0176230144176
0.0143680919259
0.0112286534587
0.00831142334864
0.00575380605574
0.00367984793389
0.00214802669603
0.00112939463391
0.000527673465483
0.000218398190693
8.4104977816e-05
3.6238420893e-05
2.0889150005e-05
1.27218827884e-05
5.81324824187e-06
0.231999994097
0.231999991647
0.231999995173
0.231999998143
0.231999999459
0.231999999872
0.231999999975
0.231999999996
0.231999999999
0.232
0.232
0.232
0.232
0.232
0.232
0.232
0.232
0.232
0.232
0.232
0.231999093166
0.231999664806
0.231999894486
0.231999972264
0.23199999392
0.231999998851
0.231999999808
0.231999999971
0.231999999996
0.232
0.232
0.232
0.232
0.232
0.232
0.232
0.232
0.232
0.232
0.232
0.231905742525
0.231991897882
0.231998814494
0.231999794391
0.231999964751
0.231999994254
0.231999999114
0.231999999872
0.231999999983
0.231999999998
0.232
0.232
0.232
0.232
0.232
0.232
0.232
0.232
0.232
0.232
0.22530071755
0.231831269227
0.23199107346
0.231998953549
0.231999838471
0.231999973752
0.231999995841
0.231999999379
0.231999999915
0.23199999999
0.231999999999
0.232
0.232
0.232
0.232
0.232
0.232
0.232
0.232
0.232
0.218543897596
0.231567872651
0.231978040109
0.231997068425
0.231999426512
0.231999885687
0.231999979515
0.231999996743
0.231999999548
0.231999999946
0.231999999994
0.231999999999
0.232
0.232
0.232
0.232
0.232
0.232
0.232
0.232
0.209057256851
0.230653074031
0.231936865169
0.231989556027
0.231997420969
0.23199940498
0.231999886859
0.231999982046
0.231999997569
0.231999999715
0.231999999971
0.231999999997
0.232
0.232
0.232
0.232
0.232
0.232
0.232
0.232
0.198617504208
0.226749990705
0.231305756272
0.231893743694
0.231980901242
0.23199630222
0.231999358023
0.231999904677
0.231999987726
0.231999998613
0.231999999862
0.231999999988
0.231999999999
0.232
0.232
0.232
0.232
0.232
0.232
0.232
0.178391549752
0.0767090342023
0.216907685371
0.230225627226
0.231820992464
0.231978461864
0.231996952344
0.231999580898
0.231999947706
0.231999994157
0.231999999419
0.231999999949
0.231999999996
0.232
0.232
0.232
0.232
0.232
0.232
0.232
0.163999124787
0.136754626099
0.214387219057
0.22954989382
0.23167377203
0.231952082927
0.231992174212
0.231998781798
0.231999833145
0.231999980063
0.231999997915
0.231999999809
0.231999999985
0.231999999999
0.232
0.232
0.232
0.232
0.232
0.232
0.154108902778
0.158040398545
0.212458256853
0.22931889045
0.231553580525
0.231919490955
0.2319845243
0.231997203427
0.231999565097
0.231999942555
0.231999993504
0.231999999366
0.231999999946
0.231999999996
0.232
0.232
0.232
0.232
0.232
0.232
0.147467294898
0.166915547894
0.208426385081
0.228000952667
0.231207157251
0.231847867571
0.231969090252
0.231993912837
0.231998956955
0.231999849345
0.231999981592
0.23199999808
0.231999999828
0.231999999987
0.231999999999
0.232
0.232
0.232
0.232
0.232
0.141162280236
0.153452287492
0.0941076300493
0.216730626518
0.229447090423
0.231588675828
0.231927129737
0.231986110251
0.23199753496
0.231999622744
0.231999950958
0.231999994572
0.231999999486
0.231999999958
0.231999999997
0.232
0.232
0.232
0.232
0.232
0.134473495415
0.135134831104
0.00943763118414
0.204416353849
0.227233606565
0.231176306725
0.231851067447
0.231970993473
0.23199458091
0.231999116749
0.231999877707
0.23199998563
0.231999998561
0.231999999876
0.231999999991
0.231999999999
0.232
0.232
0.232
0.232
0.127784258436
0.120563186538
0.000150882568536
0.1941355198
0.225215119411
0.230685256014
0.231741527541
0.231946374167
0.231989220096
0.231998101339
0.231999717346
0.23199996453
0.231999996231
0.231999999659
0.231999999974
0.231999999998
0.232
0.232
0.232
0.232
0.121455384888
0.109348188196
0.00623849672259
0.181247770349
0.221455223659
0.229749607059
0.231545564898
0.231904007384
0.231979749108
0.231996180227
0.231999389353
0.231999918037
0.231999990736
0.231999999114
0.231999999928
0.231999999995
0.232
0.232
0.232
0.232
0.116246270104
0.104813951794
0.0591921910542
0.0940397203489
0.21093519855
0.227712252567
0.231163459321
0.231828361755
0.231963247991
0.231992699866
0.231998755031
0.231999821586
0.231999978541
0.231999997827
0.231999999814
0.231999999986
0.231999999999
0.232
0.232
0.232
0.112017528295
0.10149495001
0.0675386771376
0.0224882034351
0.199989998883
0.22551327313
0.23068379532
0.231721933054
0.231938137952
0.231986954829
0.231997616127
0.231999634141
0.231999953065
0.231999994957
0.231999999545
0.231999999965
0.231999999998
0.232
0.232
0.232
0.108483425561
0.098285002615
0.0679886567557
6.91223497975e-05
0.18972813292
0.223485095244
0.230173272737
0.231590446621
0.231903482263
0.23197819994
0.231995706657
0.231999291381
0.231999902748
0.231999988889
0.231999998941
0.231999999915
0.231999999994
0.232
0.232
0.232
0.105406620988
0.0951149862729
0.0672741788921
0.000101868485139
0.177250664918
0.220749943775
0.229441951322
0.231400213319
0.231852762191
0.231964817047
0.231992580578
0.231998686578
0.231999807338
0.231999976594
0.231999997641
0.231999999802
0.231999999986
0.231999999999
0.232
0.232
0.102596888977
0.0919357932829
0.0656177778528
0.001654306252
0.161695307845
0.215141091515
0.227865607151
0.231031292813
0.231765338682
0.231942838223
0.231987362783
0.231997628195
0.231999630505
0.231999952429
0.231999994939
0.231999999555
0.231999999968
0.231999999998
0.232
0.232
0.0999376273761
0.088862130823
0.0639469213624
0.0111967995429
0.0639519263146
0.201146677783
0.224707369257
0.230340554047
0.231613273803
0.231906408868
0.23197867592
0.231995799934
0.231999309459
0.231999906151
0.231999989484
0.231999999029
0.231999999926
0.231999999995
0.232
0.232
0.0973910847059
0.0861203968147
0.0632630443016
0.0240323241471
0.0119631420551
0.187750443157
0.22148226282
0.22951217824
0.23140702802
0.231853393878
0.231965240774
0.231992789218
0.231998747494
0.23199982032
0.2319999788
0.231999997947
0.231999999837
0.23199999999
0.232
0.232
0.0949273838839
0.0837008181595
0.0630531999744
0.0318487654561
6.37704798972e-05
0.174954917022
0.218246656372
0.228562185318
0.231143382587
0.231780655119
0.231945555119
0.231988057174
0.231997802231
0.231999666625
0.231999958537
0.231999995782
0.23199999965
0.231999999977
0.231999999999
0.232
0.0925108173726
0.0814896958875
0.0627905985455
0.0363229285039
3.38030825897e-05
0.159597487393
0.212751517885
0.226913812126
0.230715833488
0.231669925345
0.231915915031
0.231980682745
0.231996248133
0.231999398964
0.231999921204
0.231999991576
0.231999999269
0.23199999995
0.231999999998
0.232
0.0901088188803
0.079374961055
0.0621651304933
0.0381321357748
0.000461274216841
0.0911154951443
0.201166349318
0.223985817018
0.230001848766
0.231496213021
0.231870898253
0.231969303687
0.231993743989
0.231998944334
0.231999854247
0.23199998362
0.231999998509
0.231999999893
0.231999999995
0.232
0.0876910481631
0.0772813701483
0.0611858115001
0.038574893141
0.00290974412287
0.0411785961677
0.188688915503
0.220721873577
0.229129501365
0.231268233623
0.231808934476
0.231952790067
0.231989882896
0.231998199121
0.231999737857
0.231999968998
0.231999997039
0.231999999777
0.231999999989
0.232
0.0852156177908
0.0751308746146
0.0598998554771
0.0384608817081
0.00640744420144
0.0081188438272
0.175197866767
0.217286505556
0.228169152296
0.23099681008
0.23172987835
0.231930212402
0.231984207425
0.231997024693
0.231999542229
0.231999942918
0.231999994268
0.231999999549
0.231999999976
0.231999999999
0.082645988785
0.0728842997015
0.058414440414
0.0382981375178
0.010093037013
0.000516073169307
0.160013894114
0.2130597778
0.226928602511
0.230639620417
0.231624911465
0.231899283391
0.231976000863
0.231995217146
0.23199922184
0.231999897598
0.231999989176
0.231999999108
0.231999999951
0.231999999998
0.0799672268235
0.0705481947622
0.0568385174116
0.0382198532955
0.0137157600922
2.66978975791e-05
0.142577519632
0.206338772641
0.224842532748
0.230070154197
0.23146931989
0.231854796155
0.231963979489
0.231992450837
0.231998704945
0.231999820375
0.23199998002
0.231999998273
0.231999999901
0.231999999997
0.0771904837
0.0681576416621
0.0552326662785
0.0380640754285
0.0163033306178
4.22409476836e-05
0.0806373026533
0.194203363679
0.221513483561
0.229190915632
0.231239033095
0.231790724051
0.231946463801
0.231988265413
0.231997884018
0.231999691198
0.231999963884
0.231999996728
0.231999999804
0.231999999993
0.0743372800433
0.065742745033
0.0536184854323
0.0377664018677
0.0180008522822
0.000400647299436
0.0422261975089
0.181177446722
0.217788615362
0.228126892899
0.230943404524
0.231705465903
0.23192215736
0.231982146974
0.231996615576
0.231999480292
0.231999936088
0.231999993928
0.231999999619
0.231999999985
0.0714134592493
0.0632849943151
0.0519283435937
0.0372070434731
0.0189131421016
0.00112050928326
0.0153248387995
0.166750492531
0.213549974754
0.226861023241
0.230576029786
0.231596068762
0.231889621816
0.231973494035
0.231994712934
0.231999145073
0.231999889382
0.231999988973
0.231999999276
0.23199999997
0.0684159372372
0.0607543574755
0.0501041563263
0.0363492641906
0.0192430090949
0.00175676127488
0.00488055016215
0.149791027704
0.207643720806
0.225046094418
0.230062716446
0.231448126911
0.231845583912
0.231961371684
0.231991910813
0.23199862378
0.231999812686
0.231999980405
0.231999998653
0.231999999942
0.0653485396666
0.058144981914
0.0481484291376
0.0352521560322
0.0192144403971
0.00237564421701
0.00119474986571
0.114638297788
0.198690311712
0.222413152189
0.229333478687
0.231244957945
0.231785855002
0.231944547009
0.23198784934
0.231997828791
0.231999689409
0.231999965916
0.231999997547
0.231999999887
0.0622231178104
0.0554713103151
0.0461008691865
0.0340217155939
0.0190486701463
0.00319372340074
6.00496486664e-05
0.0835027842645
0.188202298021
0.219245344276
0.228423692969
0.230986658256
0.231708621592
0.231921995813
0.231982128921
0.231996646953
0.231999495955
0.231999941977
0.231999995628
0.231999999786
0.0590481274113
0.0527395344816
0.0439739356883
0.032680528189
0.018736328272
0.00393294011696
1.88367695805e-05
0.05491269411
0.176061853037
0.215545575381
0.227343914837
0.230673795357
0.231612833171
0.231892852683
0.231974325954
0.231994939314
0.231999200158
0.23199990338
0.231999992374
0.231999999604
0.0558282771023
0.0499483192458
0.0417609311359
0.0312094667377
0.0182164916471
0.00443385456516
5.66686531891e-05
0.032537997102
0.162260965877
0.211013287503
0.225993603057
0.230282480127
0.231493132881
0.231855543664
0.231963868509
0.231992523103
0.231998757765
0.231999842532
0.23199998698
0.23199999928
0.052569313189
0.0470983665762
0.0394576045326
0.0295975479183
0.0174731079107
0.00467686020772
0.00012351156491
0.0189362199751
0.145919739002
0.205022906793
0.224156110202
0.22975972645
0.231338099104
0.231807277041
0.231949914931
0.231989145727
0.231998106868
0.231999748381
0.231999978213
0.231999998718
0.0492817764817
0.0441989828688
0.0370745909659
0.0278617741059
0.0165443478038
0.00470133814149
0.000191802160077
0.010599766437
0.122388204721
0.197041111014
0.221682508144
0.229061127113
0.231136570469
0.23174503718
0.231931476972
0.231984489027
0.231997164471
0.231999605257
0.231999964224
0.23199999776
0.0459790112836
0.0412646351333
0.0346311243337
0.0260331865653
0.0154885328656
0.00458160341052
0.000257124968938
0.00516665516945
0.100255713488
0.187606443032
0.218636224016
0.228184394241
0.23088466818
0.231667033445
0.231907699706
0.231978208812
0.231995828086
0.231999392032
0.231999942342
0.231999996155
0.0426715317124
0.03830526363
0.0321378679164
0.0241258270967
0.0143281143613
0.00437144133463
0.000312324464017
0.00214328479326
0.0803802750662
0.176813030239
0.214958676634
0.227110021879
0.230577136906
0.231571611533
0.231877781823
0.231969937364
0.231993975154
0.231999081167
0.231999908824
0.231999993522
0.0393665244944
0.0353269302215
0.0296001149303
0.0221460771764
0.0130757526095
0.00407797939645
0.000354208604974
0.000763836022785
0.0634136117563
0.164828017269
0.210478923226
0.225770851547
0.230197493539
0.231455073281
0.231840571791
0.231959219422
0.231991452497
0.231998636558
0.231999858462
0.231999989282
0.036069229746
0.0323346784362
0.0270231557658
0.0201018101705
0.0117471648954
0.00371251163439
0.000382200563542
0.000221054713858
0.0500025734944
0.151963797823
0.20496772152
0.224052522649
0.229715650698
0.231310865364
0.231794351685
0.231945459121
0.231988063268
0.231998010448
0.231999784029
0.231999982563
0.0327838633785
0.0293338079815
0.0244142201432
0.0180052718012
0.0103639347904
0.00328981416245
0.00039189808696
6.40025799013e-05
0.0402225523475
0.137529359814
0.198218049818
0.22183526994
0.229096074106
0.23113102499
0.231737105587
0.231927958797
0.231983567177
0.231997141458
0.231999675682
0.231999972079
0.0295132332581
0.0263292387862
0.0217818359221
0.0158727586053
0.00895269319104
0.00282767580325
0.000376840452594
3.14506886141e-05
0.0325275300034
0.12320519567
0.190358984751
0.219059486043
0.228310613614
0.230908584817
0.231667034516
0.231906028185
0.231977696694
0.231995955032
0.231999520539
0.231999955977
0.026257634945
0.0233241379247
0.0191345666931
0.0137238473542
0.00754457142457
0.00235133670705
0.000340869723434
2.23286914014e-05
0.0264583470098
0.110564551124
0.181661125109
0.215670472735
0.22732725631
0.230635900397
0.231582389534
0.231878998755
0.231970165029
0.231994363864
0.231999302263
0.231999931655
0.0230159611838
0.0203220418293
0.0164847278806
0.0115858367297
0.00617644138361
0.00188867880188
0.000286589334058
1.93121867889e-05
0.0218977316446
0.0998176466465
0.172470061765
0.21158908218
0.226093039302
0.230300345289
0.231480639276
0.231846092008
0.231960648037
0.231992264791
0.231999000253
0.231999895512
0.0197897551927
0.0173322393132
0.013854709478
0.00949747148866
0.00488711544203
0.00145900067118
0.000232488518995
1.85428926886e-05
0.0186995775845
0.090962754334
0.163220886905
0.20675389429
0.224531771711
0.229881763339
0.231357847649
0.231806298398
0.231948761208
0.231989533846
0.231998588426
0.231999842596
0.0165907372897
0.0143778277191
0.0112838773183
0.0075106477893
0.00371583116563
0.00107935863529
0.000182081547112
1.89019438913e-05
0.0166931783835
0.0840923554916
0.154170935522
0.201167902016
0.222555510378
0.229352518206
0.231208596092
0.231758376226
0.231934059828
0.231986024674
0.231998034256
0.231999766216
0.0134524433407
0.0115056648454
0.00883343605754
0.00568703704932
0.00269720309397
0.00076188685049
0.0001378925255
2.05076728367e-05
0.0156065406488
0.0786600021029
0.145810459139
0.194981018222
0.220087133916
0.228678577749
0.231026058798
0.231700903548
0.231916058121
0.231981571686
0.231997298538
0.231999657586
0.0104433111098
0.00879393841915
0.00658474886555
0.00408888913714
0.00185538389206
0.000512048877172
0.000100932358961
2.48565543488e-05
0.0152833969959
0.0744799891099
0.138498713477
0.188484275544
0.217073932099
0.227817117309
0.23080124153
0.231632180866
0.23189423062
0.231975992722
0.231996335505
0.231999505509
0.00767153013917
0.00634841346945
0.00462653072448
0.0027659636849
0.00119988450173
0.000328304506921
7.09626271564e-05
3.79152174577e-05
0.0156866990515
0.0715454070119
0.132527432101
0.181969488097
0.213495411781
0.226712135207
0.230521254419
0.231549931648
0.231867979564
0.231969087303
0.23199509272
0.231999296095
0.00526746382587
0.00427910915957
0.00303153750884
0.00174314457573
0.000725106931622
0.000204756863266
4.77998593194e-05
8.91619027688e-05
0.0168179193249
0.0698694934461
0.127925407034
0.175711345215
0.209391690145
0.225296616557
0.230167576598
0.231450961889
0.231836597638
0.231960634769
0.23199351104
0.231999012437
0.0033402673499
0.00266214478731
0.00183196644681
0.0010133959196
0.000409969485517
0.000128165614785
2.94540434059e-05
0.000308779212704
0.0185866450445
0.069292460083
0.124357487154
0.170084026414
0.204901872437
0.223500002346
0.229713178185
0.231330600768
0.23179920949
0.231950392546
0.231991524849
0.231998634215
0.00193278210507
0.00151046829544
0.00100971935793
0.000540819100466
0.000222548163999
8.30737280561e-05
1.72288565608e-05
0.000799757115724
0.0210437320856
0.0696719389242
0.121699494872
0.165325032114
0.200201835391
0.221255835789
0.229117553502
0.23118172131
0.231754666785
0.231938091813
0.231989061689
0.231998136849
0.00100724235027
0.000772303085736
0.000504098674443
0.000268765312018
0.000123837139487
5.44724056592e-05
1.12279773663e-05
0.00171511677265
0.0242858973248
0.0709545132999
0.119954695745
0.16157095361
0.19545260067
0.218532433835
0.228326663605
0.230994226511
0.231701539686
0.231923453889
0.231986043411
0.231997490057
0.000467169339177
0.000353863506278
0.000231115974004
0.000132606968456
7.58177115622e-05
3.31082431803e-05
1.17580650271e-05
0.00336066935368
0.0284007478251
0.0730924331225
0.119061231262
0.158578717597
0.191003660085
0.21539154742
0.227279657438
0.230754562552
0.231638121568
0.231906217661
0.231982386463
0.231996655022
0.000193621853274
0.000149192859963
0.000104930212934
7.29965118016e-05
4.89442769498e-05
1.68155640671e-05
3.65450615535e-05
0.00612088928434
0.0334823684105
0.076054311688
0.118966166113
0.156264973414
0.187140622369
0.211936019771
0.225913535316
0.230443688208
0.231562201873
0.231886135548
0.231977993943
0.231995579189
7.69398234501e-05
6.52739052723e-05
5.52165285006e-05
4.61439859256e-05
2.74099075778e-05
8.59138406168e-06
0.000527258701617
0.010307460599
0.0394905063634
0.0797468021876
0.1196030651
0.15462257413
0.184020076387
0.208291762061
0.224180352899
0.230035506232
0.231470857816
0.23186297037
0.231972739774
0.231994188271
3.59497284932e-05
3.59812854685e-05
3.5187412892e-05
2.77955250865e-05
1.19726967761e-05
1.45068482255e-05
0.00211587942947
0.0161475902166
0.0463449372581
0.0840602045101
0.120882823171
0.15359189456
0.181467445742
0.204747982553
0.222086133243
0.229495937717
0.231360059922
0.231836472269
0.231966443303
0.231992374345
2.19478270778e-05
2.29856744811e-05
2.03494546336e-05
1.18181286767e-05
7.59076911968e-06
0.000365021690421
0.00567370344284
0.0237172243208
0.0539479508356
0.0888912820391
0.122712869881
0.15310145459
0.179393543458
0.201604620443
0.21960282752
0.228771407288
0.231223144435
0.231806261619
0.231958828027
0.231989980881
1.28246233198e-05
1.16101592367e-05
8.11767650581e-06
6.70077159576e-06
8.50584191584e-05
0.00227854532931
0.0119470826861
0.0328683879934
0.0621210477647
0.0941034929735
0.124968416856
0.153047622201
0.177722469582
0.19889002434
0.216819984693
0.227791332954
0.231049407092
0.231771825148
0.231949494484
0.231986742933
5.56458336161e-06
5.37224468304e-06
8.47312201651e-06
0.000112726465397
0.00147119797003
0.00705750367361
0.0206351077941
0.0425412359531
0.0698140145517
0.0987287446568
0.126800739363
0.152764593259
0.176001288642
0.196299052598
0.213871818193
0.226487286989
0.23083874825
0.23173468657
0.231938197409
0.231982268748
0.232
0.232
0.232
0.232
0.232
0.232
0.232
0.232
0.232
0.232
0.232
0.232
0.232
0.232
0.232
0.232
0.232
0.232
0.232
0.232
0.232
0.232
0.232
0.232
0.232
0.232
0.232
0.232
0.232
0.232
0.232
0.232
0.232
0.232
0.232
0.232
0.232
0.232
0.232
0.232
0.232
0.232
0.232
0.232
0.232
0.232
0.232
0.232
0.232
0.232
0.231999999999
0.232
0.231999999999
0.232
0.231999999997
0.231999999999
0.231999999995
0.231999999998
0.231999999989
0.231999999996
0.231999999977
0.231999999991
0.231999999955
0.231999999981
0.231999999913
0.231999999961
0.231999999834
0.231999999923
0.231999999689
0.231999999851
0.231999999431
0.231999999718
0.231999998978
0.231999999476
0.231999998197
0.231999999046
0.231999996879
0.231999998295
0.231999994689
0.231999997008
0.231999991112
0.231999994843
0.231999985362
0.231999991261
0.231999976278
0.231999985441
0.231999962163
0.231999976152
0.231999940584
0.231999961586
0.231999908114
0.231999939139
0.231999860051
0.231999905158
0.23199979012
0.231999854658
0.231999690169
0.231999781001
0.231999549782
0.231999675503
0.231999355778
0.231999526888
0.231999091354
0.231999320438
0.231998734712
0.23199903665
0.231998256461
0.231998648724
0.2319976157
0.231998119042
0.231996756145
0.23199739697
0.231995596057
0.231996408662
0.23199402555
0.231995060654
0.231991865081
0.231993219396
0.231988276834
0.231989745563
)
;

boundaryField
{
    inletfuel
    {
        type            calculated;
        value           uniform 0;
    }
    inletair
    {
        type            calculated;
        value           uniform 0.232;
    }
    outlet
    {
        type            calculated;
        value           nonuniform List<scalar> 
26
(
0.115108150897
0.115208992317
0.11543044529
0.115742416452
0.116446859189
0.118016431872
0.120361975183
0.123606167482
0.1278595451
0.133206902575
0.139693642054
0.147313158091
0.155997299794
0.165611662478
0.175959394881
0.186797788891
0.197845280379
0.208810605614
0.219491501266
0.227766775938
0.230800545775
0.231562930085
0.231735291062
0.231585437893
0.231120538563
0.230902335393
)
;
    }
    axis
    {
        type            empty;
    }
    leftside
    {
        type            calculated;
        value           nonuniform List<scalar> 
65
(
0.231999990093
0.231999990612
0.232
0.232
0.231999999999
0.231999990612
0.231999993293
0.23199999482
0.231999995883
0.231999996731
0.231999997221
0.23199999742
0.231999997518
0.231999997553
0.231999997543
0.231999997499
0.231999997424
0.23199999732
0.231999997187
0.231999997025
0.231999996828
0.231999996595
0.23199999632
0.231999995999
0.231999995623
0.231999995182
0.231999994662
0.231999994047
0.231999993318
0.231999992447
0.231999991404
0.231999990146
0.231999988621
0.231999986759
0.231999984476
0.231999981653
0.231999978136
0.231999973723
0.231999968139
0.231999961005
0.231999951812
0.231999939856
0.23199992415
0.231999903335
0.231999875513
0.231999837986
0.231999787023
0.231999717166
0.231999620363
0.231999484001
0.231999287112
0.231998990409
0.231998517679
0.231997704434
0.231996204639
0.231993286684
0.231987500905
0.231976083881
0.231954378038
0.23191464875
0.231845964552
0.231732617196
0.231556126053
0.23128944542
0.230902335393
)
;
    }
    burnerwall
    {
        type            calculated;
        value           nonuniform List<scalar> 7(4.25665301428e-11 4.10519300152e-08 1.88067619056e-05 0.231999045407 0.231910868007 0.227947654987 0.0616822726573);
    }
    front
    {
        type            wedge;
    }
    back
    {
        type            wedge;
    }
}


// ************************************************************************* //
