/*--------------------------------*- C++ -*----------------------------------*\
  =========                 |
  \\      /  F ield         | OpenFOAM: The Open Source CFD Toolbox
   \\    /   O peration     | Website:  https://openfoam.org
    \\  /    A nd           | Version:  dev
     \\/     M anipulation  |
\*---------------------------------------------------------------------------*/
FoamFile
{
    version     2.0;
    format      ascii;
    class       volScalarField;
    location    "0.3";
    object      edc::R_CO;
}
// * * * * * * * * * * * * * * * * * * * * * * * * * * * * * * * * * * * * * //

dimensions      [1 -3 -1 0 0 0 0];

internalField   nonuniform List<scalar> 
1629
(
3.25685065682e-28
3.6692233182e-28
4.29276441296e-28
5.861658531e-24
1.35192335464e-23
6.13860018432e-23
3.00337110809e-20
1.49870342629e-19
1.72710241906e-18
2.08690665037e-17
8.32851615099e-17
6.44074292059e-16
1.94596233664e-15
8.41551169001e-15
5.76229216192e-14
1.70220111218e-13
1.08337708981e-12
2.47308491271e-11
4.89422102654e-11
8.1562472033e-10
2.72321309729e-08
1.75406414288e-08
3.98823040041e-07
2.30843078605e-05
2.77202293048e-07
3.18728421842e-06
7.04187974185e-05
1.79660402871e-06
1.14427525379e-05
0.000114521725356
7.00224673857e-06
2.72625967025e-05
0.00014552195321
1.96726052583e-05
5.23333187411e-05
0.00018623423337
4.45853103472e-05
9.22610820478e-05
0.000268800700307
8.44142695703e-05
0.000144461094158
0.000339411145445
0.000136221349353
0.00020308972517
0.000396704314847
0.000189192156371
0.000252960251901
0.000418427639059
0.000230230788674
0.000283607556367
0.000411872576333
0.000250043129155
0.000289327937964
0.000375186754948
0.000247463208304
0.000272409535467
0.00032274541103
0.000229043147557
0.000243352939246
0.000271951034118
0.000204318253353
0.000213567592135
0.000232720366989
0.000179183552256
0.00018631501016
0.000201664860675
0.000154352948138
0.000159694750215
0.00017086123232
0.000129755417312
0.000133330987489
0.000140705704512
0.000106783003768
0.000109284254719
0.000115013967291
8.75792240215e-05
8.99942731126e-05
9.64986978463e-05
7.37625700886e-05
7.69677474893e-05
8.59560817778e-05
6.60397775982e-05
7.04250891455e-05
8.23779544624e-05
6.40436359685e-05
6.95429340323e-05
8.37512507955e-05
6.6255718262e-05
7.24010724827e-05
8.73776228144e-05
6.98573358778e-05
7.59514464297e-05
9.00955689554e-05
7.1572408069e-05
7.69810366282e-05
8.91747395742e-05
6.85309373039e-05
7.28622127536e-05
8.25554414401e-05
5.79208617009e-05
6.09488580586e-05
6.78883290323e-05
3.65528772453e-05
3.82804897547e-05
4.23338267198e-05
1.21774701392e-06
1.65241330001e-06
3.20826413128e-06
-4.9929078952e-05
-5.0120664606e-05
-4.92275399793e-05
-0.000112803117432
-0.000111966074534
-0.000107541391158
-0.00017163653268
-0.000166629351247
-0.000151496504191
-0.000195045008517
-0.000181845098195
-0.00014720684538
-0.000141232830969
-0.000116082780931
-5.34958693343e-05
3.0997366218e-05
7.14669254986e-05
0.000168652549378
0.000360313606554
0.000419112609859
0.000557611266232
0.00089598352414
0.000977261943087
0.00116653827404
0.00171716243294
0.00182696325591
0.0020806663721
0.00294283753255
0.00308880308269
0.00342398193068
0.00472338449304
0.00491360505474
0.00534800810893
0.0072107494532
0.00745172217936
0.0079991762111
0.010502128751
0.0107954458397
0.0114581922135
0.0145245965169
0.0148606555468
0.01561523193
0.0188172260823
0.0191674422614
0.0199478355331
0.0223368920451
0.0226544109637
0.0233559360545
0.0237079467901
0.0239489224293
0.0244772241194
0.0221365972556
0.0222918605334
0.0226317540997
0.0182848392707
0.0183900127453
0.0186246594594
0.0140970818663
0.0142138323729
0.0144810021573
0.0118186939181
0.0120133492476
0.012460700955
0.0132824236295
0.013621928603
0.0143986613122
0.0199290804769
0.0204959638956
0.021787720114
0.0330084467529
0.0339173968587
0.0359831850614
0.0550364105491
0.0565073525084
0.0598472720915
0.0932671835749
0.095755400506
0.101400748654
0.163594602505
0.167982375528
0.177914716826
3.49278579696e-15
4.29517689538e-13
5.34333959112e-10
8.37009361559e-07
0.000988531056204
0.0010406283128
0.00072593120445
0.000508654953644
0.000557482652533
0.000849828934928
0.000861549643348
0.000844239831636
0.000734643163609
0.000639050373133
0.000511892482306
0.000393475689178
0.000309700199771
0.000261200901188
0.000226561911638
0.000188924735713
0.00015382912112
0.000127481301772
0.000111921520707
0.000105955233523
0.000106137430431
0.000109107006922
0.0001118874786
0.000112045954954
0.000107717995453
9.73481769863e-05
7.89229528375e-05
4.97262821172e-05
8.1553283436e-06
-4.32516670619e-05
-9.3287160155e-05
-0.000118304308451
-8.25951180958e-05
5.35202039304e-05
0.000326895955274
0.000776833588279
0.00146094267397
0.00247036556763
0.003933525326
0.00600210557808
0.00881599535958
0.0124375708328
0.016718138215
0.021074013764
0.0243544210677
0.0252205384786
0.0231103770298
0.0189664875073
0.0148861266456
0.0131412866588
0.0155703103223
0.0237235632971
0.0390669911386
0.0648291753615
0.109813801913
0.192670823681
2.51482089513e-19
4.06617600124e-19
7.07472050136e-19
1.08423488472e-18
9.26799265659e-19
4.86807101052e-19
1.75393647681e-19
4.6528390603e-20
9.59388424796e-21
1.58510479438e-21
2.13214195728e-22
2.36117191268e-23
2.17212280848e-24
1.67372591871e-25
1.0899513093e-26
6.06464391196e-28
2.92759299517e-29
1.24939325294e-30
4.91568391878e-32
3.37564772019e-33
5.14029937871e-18
9.04883802762e-18
1.79826102874e-17
3.03175805311e-17
2.30829049186e-17
1.0228347877e-17
3.12839090981e-18
7.16121193119e-19
1.2960845922e-19
1.89962590564e-20
2.28733143618e-21
2.28894556867e-22
1.92253637229e-23
1.36821547112e-24
8.33747906204e-26
4.40787872149e-27
2.06060616169e-28
8.72330267441e-30
3.47550527177e-31
2.49951316915e-32
7.70358103705e-17
1.14358141892e-16
4.97650893783e-16
9.78064811995e-16
5.31518181568e-16
1.5291005889e-16
3.44419154359e-17
6.61228965902e-18
1.06428761893e-18
1.41355783046e-19
1.55822043252e-20
1.44034904047e-21
1.12771632855e-22
7.55403020266e-24
4.37905319886e-25
2.22989050321e-26
1.01926002087e-27
4.31884884839e-29
1.75623167165e-30
1.2657606303e-31
4.09736912363e-15
1.7635508956e-14
4.6539433821e-14
7.04380330967e-14
2.46471396309e-14
3.74339703318e-15
4.28590522117e-16
5.57220719182e-17
7.66489568945e-18
9.39285869871e-19
9.75604712857e-20
8.57898191283e-21
6.43859954429e-22
4.16447444603e-23
2.3486663223e-24
1.17338419098e-25
5.31663261153e-27
2.26810801307e-28
9.64006054117e-30
8.23179333865e-31
3.76649303905e-12
9.96461481728e-12
1.49567323359e-11
8.80014732724e-12
1.96718301844e-12
1.96908959919e-13
1.16015430188e-14
6.79399891245e-16
5.87580759664e-17
6.1529859005e-18
5.95630884804e-19
4.99257918018e-20
3.61251652397e-21
2.2734856672e-22
1.2581068652e-23
6.21890370955e-25
2.8132405595e-26
1.21346763202e-27
5.41770486698e-29
5.85355146188e-30
1.644692701e-08
2.2412986873e-07
1.55555378182e-08
1.47785969285e-09
1.69033342781e-10
1.19212495181e-11
5.06963837279e-13
1.56575511824e-14
5.85369160675e-16
3.98243545576e-17
3.41222302758e-18
2.72003855331e-19
1.90797373578e-20
1.17682576698e-21
6.43917842592e-23
3.17191203086e-24
1.4405144305e-25
6.29170579415e-27
2.92045675046e-28
3.48408409554e-29
7.83382515274e-05
0.00188620181062
3.30230330939e-05
7.79549556056e-07
1.63123490962e-08
6.17532006218e-10
1.9280563789e-11
4.48989691691e-13
8.94910660094e-15
2.83418462369e-16
1.80144898951e-17
1.34432018497e-18
9.23258315811e-20
5.64964853274e-21
3.09155741374e-22
1.53219042287e-23
7.03112308263e-25
3.11148049818e-26
1.48219292089e-27
1.79278543552e-28
0.0764714744944
5.05397024847
0.00877608179588
9.5657313483e-05
9.90412593155e-07
1.67164567718e-08
4.29658349297e-10
8.66543661223e-12
1.42141307289e-13
2.49025049945e-15
8.95631317651e-17
5.85757004126e-18
3.9970462399e-19
2.47770340852e-20
1.38017767397e-21
6.97554868094e-23
3.26181059016e-24
1.46479932699e-25
7.09379968041e-27
8.19044766109e-28
0.0226112314195
0.965424751346
0.0153665807042
0.000163480417472
3.14196699514e-06
6.47776361927e-08
2.33276260733e-09
6.65703393038e-11
1.33088554745e-12
2.12920238517e-14
4.58795906835e-16
2.26632237656e-17
1.5434358528e-18
9.95924057768e-20
5.77344099065e-21
3.02112250056e-22
1.45158560949e-23
6.62466380645e-25
3.23921471084e-26
3.42956395426e-27
0.00559425002886
0.085153491148
0.00529123854122
8.66952979178e-05
4.21604470531e-06
1.41842128146e-07
7.31888660102e-09
3.07942822437e-10
8.26432718343e-12
1.55960906837e-13
2.69035563402e-15
8.76099178131e-17
5.62673870622e-18
3.82762889577e-19
2.34203890671e-20
1.27911247326e-21
6.32899178938e-23
2.92735160876e-24
1.43466073108e-25
1.36069177205e-26
0.00185286427546
0.00968968222753
0.012840773723
0.00019228151736
1.12329998703e-05
4.52604951383e-07
2.46589691443e-08
1.25126653887e-09
4.31399121952e-11
9.83360644253e-13
1.700250826e-14
3.97935614763e-16
2.16433354351e-17
1.51447661954e-18
9.69613499776e-20
5.48027076228e-21
2.76643874127e-22
1.28435931046e-23
6.25174783818e-25
5.24595559268e-26
0.00309636984675
0.148383365775
1.77331159776
0.00668172108829
0.000214650855676
4.52719217997e-06
1.31714277126e-07
5.97136754297e-09
2.2028238662e-10
5.38507486303e-12
1.0440212016e-13
2.15374590785e-15
9.54088817878e-17
6.49456948686e-18
4.21625935459e-19
2.41116058024e-20
1.2203347734e-21
5.61225776571e-23
2.69021420083e-24
1.98788576331e-25
0.00536042756434
0.250089896929
8.24328844897
0.00661186755381
0.000239305464449
1.08392374529e-05
3.19292793283e-07
1.78899949237e-08
7.92185343497e-10
2.59888413107e-11
5.69385001498e-13
1.1953676197e-14
4.59241840824e-16
2.92581733474e-17
1.87246345007e-18
1.063153109e-19
5.3238007489e-21
2.40452657179e-22
1.13096093138e-23
7.37625346702e-25
0.00367269147242
0.0835335902647
15.6508351835
0.00805007998725
0.000224365267157
1.37277026971e-05
5.54728609934e-07
3.82604650292e-08
2.40462137194e-09
9.53723796657e-11
2.59379453296e-12
5.90153125045e-14
2.12801690949e-15
1.26343237524e-16
7.93069252373e-18
4.46341031765e-19
2.21085755139e-20
9.82083103558e-22
4.54901773616e-23
2.64069995939e-24
0.00273727699025
0.0418166454198
11.8536942972
0.0153050503629
0.000335838779053
1.91356859734e-05
1.27993223538e-06
8.94954225206e-08
6.35937400556e-09
3.12311793363e-10
1.01661792188e-11
2.54026047394e-13
8.57573443823e-15
4.79007414301e-16
2.99445169111e-17
1.69603582571e-18
8.41409782695e-20
3.71675762915e-21
1.71211761322e-22
8.95714052465e-24
0.00177097675729
0.0153477182979
1.11618235169
-2.74196307096
0.0124358842018
0.000377047460856
7.83048899048e-06
2.62886820177e-07
1.70617967969e-08
9.04756345761e-10
3.39888961059e-11
9.59319402735e-13
2.98398996649e-14
1.54421941399e-15
9.7484207626e-17
5.66998069202e-18
2.86781309139e-19
1.27954781777e-20
5.93553818577e-22
2.83879247128e-23
0.00138144331512
0.010445824178
0.28959758006
1.47554266578
0.0120915704114
0.000483670931568
1.72287390479e-05
5.40403889514e-07
3.71988170948e-08
2.4128020307e-09
1.06495182111e-10
3.22546630691e-12
9.39271699198e-14
4.33508499813e-15
2.7472934588e-16
1.6640499021e-17
8.71606852835e-19
3.98680522815e-20
1.8843938668e-21
8.35648070413e-23
0.000888191522535
0.00505988339818
0.0872174716996
11.6750059257
-0.00176630160934
0.000195882394334
1.46535346883e-05
7.05909663835e-07
6.21966227074e-08
4.73418205363e-09
2.68448046201e-10
9.72051169951e-12
2.73438859207e-13
1.11743338429e-14
6.88886777931e-16
4.35442027989e-17
2.38501835494e-18
1.13083923667e-19
5.49515875084e-21
2.28865227504e-22
0.000562547134071
0.0026935661692
0.0399051758729
9.01847838423
-0.00192404478352
6.97156788861e-05
7.37921536275e-06
7.72383713774e-07
8.86553588523e-08
8.91494121158e-09
6.05832528997e-10
2.66317479668e-11
7.91998827165e-13
2.80474462362e-14
1.59720712056e-15
1.04044926239e-16
5.97540980391e-18
2.95566297124e-19
1.48480226961e-20
5.8723491737e-22
0.000408561355176
0.00197851701176
0.0288921948534
7.61530990102
0.00568659708695
0.000156807223184
7.87996201143e-06
1.01697057327e-06
1.35325038148e-07
1.59273448482e-08
1.30846520086e-09
6.14004116218e-11
2.23496686051e-12
7.1521606799e-14
3.56573130983e-15
2.32753027841e-16
1.39594758017e-17
7.21900526208e-19
3.75848063989e-20
1.42475388442e-21
0.000352714831219
0.00173732554581
0.0239783967282
5.10161487251
-4.32428689669
0.0143960411321
0.000496476558454
1.36447731511e-05
4.08042938767e-07
3.37893155217e-08
2.85312527456e-09
1.60502754242e-10
6.10997117007e-12
1.86552303927e-13
7.90177126653e-15
4.96772024161e-16
3.08418829892e-17
1.66722316214e-18
9.00289913716e-20
3.29747160144e-21
0.000320081806983
0.00150904336617
0.0175978946425
1.551734466
1.6428795929
0.00944969602866
0.000475970474479
2.2176816915e-05
6.9198707201e-07
6.07573816891e-08
5.69797546603e-09
3.83246576068e-10
1.58396515453e-11
4.82186678218e-13
1.76594556729e-14
1.02217303769e-15
6.49188410443e-17
3.66705788255e-18
2.05499715755e-19
7.3261703698e-21
0.000269395285781
0.00110535986394
0.00975716736509
0.411747106542
8.21652339242
-0.00473052588695
0.000153229137936
1.17298667549e-05
7.60505584681e-07
8.47795485819e-08
9.73573814082e-09
7.53902587535e-10
3.83017743256e-11
1.19313423458e-12
4.01777869442e-14
2.04874343883e-15
1.30717777886e-16
7.71064386521e-18
4.48822323949e-19
1.56821917863e-20
0.000226616547165
0.000811023926149
0.00568543813189
0.16080370324
6.92485919398
-0.00506064208456
5.04627482577e-05
5.78341865776e-06
7.32359524245e-07
1.02622741599e-07
1.49427757719e-08
1.3862975319e-09
8.56130210371e-11
2.98842687208e-12
9.36653960856e-14
4.07325271846e-15
2.53396673042e-16
1.55531191012e-17
9.4075642047e-19
3.24154177569e-20
0.000200575902384
0.000643251840208
0.00388648916396
0.0888342014369
5.60175919348
-4.03064923854
0.00415161595898
0.000182232544544
5.29088541098e-06
2.21915543862e-07
2.44882263568e-08
2.47301920613e-09
1.5412183731e-10
7.1705307487e-12
2.21871025704e-13
8.21296376106e-15
4.77881898257e-16
3.02366153166e-17
1.89857395867e-18
6.48395574084e-20
0.000188713461249
0.000558714625942
0.00316009363462
0.0623279228169
3.82286854926
-1.87863627752
0.00547196637608
0.000284094681387
1.24205625363e-05
3.85354292134e-07
3.87099141772e-08
4.38886015664e-09
3.09380192528e-10
1.62188498377e-11
5.21767400281e-13
1.69932247944e-14
8.86305962566e-16
5.68967591416e-17
3.69960576563e-18
1.25740998304e-19
0.000185433365603
0.00051788319734
0.00285871939145
0.0479632264694
2.16853558594
1.66414979068
-0.00342437923926
0.000167020664103
1.07197093467e-05
4.64666526636e-07
5.15243426505e-08
6.67423906974e-09
6.17868599891e-10
3.40860209124e-11
1.19136022135e-12
3.59975546741e-14
1.63231903626e-15
1.03905342196e-16
6.97065301665e-18
2.36596188308e-19
0.000183784129634
0.000480966137821
0.00255674483562
0.0363391114466
1.21109013747
5.08022354922
-0.0182040923672
-3.59312295395e-06
4.92976199646e-06
4.23219916935e-07
5.83593081132e-08
9.24718599707e-09
1.05054319969e-09
6.68271971797e-11
2.36709731246e-12
7.73566668667e-14
3.01834625714e-15
1.84620409137e-16
1.27025169589e-17
4.31816866808e-19
0.000180394612803
0.000440599739387
0.00225691115264
0.0277533866054
0.744788898057
5.69220829719
-0.00820976798336
-6.6438923236e-05
1.82972024204e-06
3.36502770118e-07
5.89348334054e-08
1.15426299486e-08
1.47443995156e-09
1.2254780419e-10
4.93703541937e-12
1.66936447604e-13
5.6797109912e-15
3.20814248331e-16
2.23963659771e-17
7.6400898104e-19
0.000174502982651
0.000403213662084
0.00204196288695
0.0222579296802
0.485570447657
4.75060592195
-4.08924799223
0.000358078500705
8.051472485e-05
3.02528392741e-06
1.25164767712e-07
1.63470693208e-08
2.17785077674e-09
2.08678159704e-10
1.01182612308e-11
3.57246178408e-13
1.09875247474e-14
5.50276062355e-16
3.82644221649e-17
1.31019804309e-18
0.000165185426636
0.000368683627331
0.0018983426735
0.0185450134989
0.330514652797
3.54652598295
-2.02307173143
-0.00184545518546
7.7587591656e-05
6.04833782688e-06
2.0154567366e-07
2.27619475519e-08
3.22392545409e-09
3.11117436741e-10
1.97237592974e-11
7.47450135325e-13
2.18279561519e-14
9.42802222004e-16
6.34981381866e-17
2.1779872928e-18
0.000151461094809
0.000337272335307
0.0018295535651
0.0162091635301
0.24317135318
2.50622814819
-0.133370452409
-0.00918603211523
-1.64993504462e-05
5.07171897979e-06
2.46630544874e-07
2.86050181575e-08
4.4286470559e-09
4.3384612227e-10
3.62982194076e-11
1.5088055555e-12
4.40018665934e-14
1.63331083013e-15
1.02647753419e-16
3.50954858212e-18
0.000132432993617
0.000311918593612
0.00184795829033
0.0149779226956
0.189129406993
1.83483701084
1.49546513256
-0.0207713884763
-0.000179346198698
2.32743826988e-06
2.46597614873e-07
3.17191025056e-08
5.64177004249e-09
7.06979983537e-10
6.26165553241e-11
2.92162366649e-12
8.86157017638e-14
2.88973332107e-15
1.6231799857e-16
5.48200434771e-18
0.000106482854247
0.000294209859252
0.00193704153417
0.0143582448415
0.155124517556
1.34422118892
2.9554822724
-1.88064992346
-0.000328946729115
1.66428334842e-05
7.05801991309e-07
4.71688248783e-08
7.32035661563e-09
1.09282165483e-09
1.01618376995e-10
4.52292720448e-12
1.76036272997e-13
5.24381553182e-15
2.52623160298e-16
8.30295643667e-18
7.1664304729e-05
0.00028551627027
0.00206289178783
0.0138793447651
0.127530568885
0.922315420183
4.37730513978
-2.30418765215
-0.00221992627504
6.85849878631e-06
1.30433534147e-06
6.79534460449e-08
9.26497404815e-09
1.44193710005e-09
1.56987053803e-10
7.59893927291e-12
3.41632824835e-13
9.72686092277e-15
3.90339354387e-16
1.22025613322e-17
3.01649175602e-05
0.000300528911809
0.00226050638607
0.0137495509618
0.108475111451
0.686729548057
3.838266238
-2.03028445547
-0.00596339880539
-4.99336363586e-05
1.61459537158e-06
8.44528718745e-08
1.13154180566e-08
1.81143506044e-09
2.29628039162e-10
1.32959204921e-11
6.41237897032e-13
1.82605054624e-14
6.05837199281e-16
1.74427812024e-17
-8.6134542313e-06
0.000362140596447
0.00256984287388
0.0140809393394
0.0967210725998
0.552790816878
3.16453113853
-1.49481863105
-0.0132685157344
-0.000176030723342
8.71807165065e-07
9.71908041129e-08
1.2868079624e-08
2.23449352824e-09
3.12003229791e-10
2.22759326888e-11
1.1597563928e-12
3.42678449208e-14
9.5751760936e-16
2.43976889e-17
-2.53337444228e-05
0.000496749107976
0.00302397168486
0.0149143961994
0.0904587213144
0.473097924307
2.64763697214
-0.851776703059
-0.0422044407928
-0.00042718645791
-1.56041567993e-06
9.37453923386e-08
1.37659464541e-08
2.64602414956e-09
3.85806819214e-10
3.53270210313e-11
2.01910006618e-12
6.35816298091e-14
1.55852890503e-15
3.37689598017e-17
9.60122533566e-06
0.000731660674255
0.00365354431434
0.0162637315236
0.0879306004168
0.416510897199
2.20538458029
-0.113202881045
-0.895512100315
-0.00111304176815
-4.04048507526e-06
1.85651486149e-07
1.74502104695e-08
3.07584073218e-09
4.66652117333e-10
5.32426857907e-11
3.36785613484e-12
1.15560305781e-13
2.62010878376e-15
4.69997522522e-17
0.000131150990041
0.00109404878843
0.00449313344841
0.0181279470609
0.0875781804842
0.366635302593
1.77608689932
0.75075846136
-1.29357693465
-0.00284540377142
-2.67047574887e-05
1.77324433609e-07
2.12691766934e-08
3.60925717016e-09
5.78294112628e-10
7.63465936143e-11
5.39071556676e-12
2.04096652206e-13
4.51416241229e-15
6.70348084853e-17
0.000373565115947
0.00161618097551
0.00559763724956
0.0205486903551
0.0885033985781
0.324387995178
1.4047760955
1.5858459307
-1.42119970367
-0.00567140096437
-8.16408911919e-05
-1.3989217471e-07
2.2477337731e-08
3.89078008577e-09
7.13155519518e-10
1.02242402585e-10
7.93161526871e-12
3.48300442205e-13
7.8576406861e-15
9.9775573321e-17
0.000771212437751
0.00234438428003
0.00704911127403
0.0235962379506
0.0901848382364
0.287394094217
1.10821799337
2.27622850651
-1.57686955444
-0.0114837083369
-0.000191449495059
-9.90578046911e-07
1.91110282891e-08
3.99868402128e-09
8.06883332624e-10
1.31048328323e-10
9.62986640172e-12
5.73229742423e-13
1.36236270885e-14
1.56750189653e-16
0.00136906791764
0.00334844318344
0.00895476713031
0.0273286401056
0.0921920260887
0.254774859931
0.883394370508
2.74652855482
-1.68985055218
-0.0336036937574
-0.000403956746146
-2.68748382917e-06
1.05669662887e-08
3.89302931181e-09
8.76527092075e-10
1.61063051683e-10
1.20873681115e-11
9.14940370238e-13
2.32711328923e-14
2.59573042958e-16
0.00223728623931
0.00472839515349
0.0114385221684
0.0317645598575
0.0941726915555
0.227026089907
0.732454644235
2.89100868311
-1.71204065386
-0.206979193069
-0.000882933259077
-6.26799836323e-06
6.89245462216e-09
4.08309827408e-09
9.48643428525e-10
1.89880221173e-10
1.54720826254e-11
1.40694964436e-12
3.88514213865e-14
4.46758810699e-16
0.00348082896843
0.00661271229988
0.0146184708419
0.0368391048096
0.0957422455655
0.204212358214
0.641349873535
2.8115600103
-1.61089842274
-0.467971326642
-0.00201519823747
-1.97970137693e-05
-3.90325149332e-08
4.31157165907e-09
1.00396153358e-09
2.16742877082e-10
1.98138286831e-11
2.08309579987e-12
6.30178261522e-14
7.83220727337e-16
0.00523679038097
0.00914167181943
0.018569343169
0.042341393061
0.0963681670491
0.185406639539
0.58489254722
2.69388176891
-1.45720059377
-0.566507181873
-0.00361443689479
-5.03192576802e-05
-2.20958724698e-07
3.54173249401e-09
1.03535982488e-09
2.40523475569e-10
2.49224031733e-11
2.96843635172e-12
9.89057053934e-14
1.37241599924e-15
0.00765421860035
0.0124334797362
0.0232695913549
0.0478529354698
0.0955303295092
0.170266332839
0.545022929356
2.57588597031
-1.30225222406
-0.635597045991
-0.00553405257901
-0.000120212236492
-6.98543467184e-07
9.90039875252e-10
1.02001385185e-09
2.58632578104e-10
3.04752857116e-11
4.07403192665e-12
1.50074849808e-13
2.37086827137e-15
0.0108521173473
0.0165238412904
0.0285090776883
0.0526844782482
0.0928240897797
0.158493248975
0.524616410841
2.47157995499
-1.1748689962
-0.704389730402
-0.00898496081122
-0.00023728980504
-2.01007491883e-06
-5.63577130966e-09
9.12818770902e-10
2.70197859665e-10
3.62186942454e-11
5.39539239774e-12
2.20532144042e-13
4.0036076161e-15
0.0148414085523
0.0212563821918
0.0337547568311
0.0559168603404
0.0881915681652
0.150423934824
0.519887130614
2.38828007853
-1.09483681399
-0.761537682792
-0.0186534532316
-0.000420927850487
-5.25968873876e-06
-2.27130875661e-08
7.40325832329e-10
2.75893117421e-10
4.20569842708e-11
6.91529048636e-12
3.13520207057e-13
6.57590998304e-15
0.0193721987591
0.0261063765508
0.0380590245221
0.0566502546665
0.0821177847055
0.146896839494
0.529421251382
2.32168471349
-1.06260744031
-0.79836308635
-0.0443282284152
-0.000718199152061
-1.29938969633e-05
-7.27123083725e-08
4.91468444977e-10
2.76748683609e-10
4.80960776916e-11
8.61422764457e-12
4.31780666433e-13
1.04737432905e-14
0.023717031133
0.0300477705493
0.0402244967098
0.054460421755
0.0757438259829
0.149179537493
0.553026697996
2.25718119947
-1.07260211369
-0.811888830061
-0.0774681528353
-0.00117169603885
-3.08393957842e-05
-2.36701849701e-07
-4.59384847005e-10
2.71713554487e-10
5.45426819156e-11
1.04787565458e-11
5.77065201862e-13
1.61474104814e-14
0.026629688853
0.0317730421924
0.0393772995627
0.0498585574994
0.0708684024154
0.159218939858
0.593860453369
2.16847575648
-1.11969991734
-0.788666980799
-0.0999398397156
-0.00172384693575
-6.40459868699e-05
-6.93530336113e-07
-3.48795352764e-09
2.40573946016e-10
6.1521871108e-11
1.24960808182e-11
7.50044773371e-13
2.40788354494e-14
0.0268658767832
0.0304516438515
0.0357105103107
0.0445216686081
0.0701070985828
0.181465886605
0.671606910471
1.93209491312
-1.16712754409
-0.750089686492
-0.112333917285
-0.0023479895648
-0.000115014108897
-1.74964668492e-06
-1.17916696045e-08
1.42796307918e-10
6.85234482702e-11
1.46294660116e-11
9.50220487386e-13
3.47412416001e-14
0.0241604691545
0.0265589983636
0.0307924343761
0.0410012433842
0.0767119720528
0.222031576179
0.808338671048
1.48381162891
-1.15129949535
-0.700289831115
-0.119098245647
-0.00308007537969
-0.000182305449456
-3.8809730457e-06
-3.25787489915e-08
-9.97214349598e-11
7.349784708e-11
1.67837282282e-11
1.17571725364e-12
4.85683276876e-14
0.0197609425673
0.021941633873
0.0270793566716
0.0421051660479
0.0938116041092
0.28410884177
0.995991401315
0.982882724701
-1.10638100243
-0.64081193643
-0.121253467251
-0.00401396083957
-0.00026531008111
-7.84449935532e-06
-8.5880931119e-08
-6.45135278802e-10
7.13101609741e-11
1.87805759283e-11
1.423201684e-12
6.59772231519e-14
0.0159082637566
0.019063114803
0.027177776566
0.0504983280802
0.124085927376
0.368332525823
1.21455769853
0.478876607318
-1.05327907631
-0.57429410154
-0.118867402293
-0.00514602848919
-0.000365699316965
-1.48195308854e-05
-2.08942475088e-07
-1.87599750458e-09
5.04058497891e-11
2.03949594365e-11
1.68886014611e-12
8.74929349111e-14
0.0148901662081
0.0202243930529
0.0333950003894
0.0685317292458
0.169638110554
0.474561183214
1.42140887511
-0.0237381089705
-0.990623170103
-0.504316507825
-0.112469003855
-0.0063829951195
-0.000475509709321
-2.57011652067e-05
-4.8026488975e-07
-4.6878522142e-09
-2.60275317338e-12
2.13511498139e-11
1.96953158467e-12
1.14039011105e-13
0.0185525257902
0.02732031379
0.0477916897597
0.0987210963144
0.234160474028
0.612095317088
1.46621700691
-0.468953132482
-0.9148166296
-0.433692327102
-0.102829922175
-0.00750108327955
-0.000588331684533
-4.14271327063e-05
-1.03523822188e-06
-1.13206911145e-08
-9.82025230662e-11
2.10871512221e-11
2.26648173672e-12
1.47360906423e-13
0.0285925690055
0.0425399723797
0.073898226869
0.148666745482
0.339770756678
0.866931432788
0.789969554243
-0.706661879613
-0.806933098417
-0.362604985847
-0.0906718977616
-0.00822317265995
-0.000693741621913
-6.26698544327e-05
-2.08521982822e-06
-2.68530211274e-08
-3.00530685907e-10
1.88222452404e-11
2.58478606785e-12
1.90480226199e-13
0.0467433324738
0.0683718817365
0.115720683962
0.224777112767
0.492049945059
1.12820646121
0.0610492097612
-0.801564688723
-0.680245377479
-0.294028585287
-0.0770702035502
-0.00840493345777
-0.00078246808768
-8.70334826595e-05
-3.82734651305e-06
-6.10023835066e-08
-6.93911514096e-10
1.36149983124e-11
2.92885946929e-12
2.47892806022e-13
0.0771424746247
0.111629831637
0.186160307493
0.354596978731
0.753141776268
0.687280248198
-0.430516441443
-0.783644062148
-0.547172456855
-0.230625657502
-0.0631128042152
-0.00806996146067
-0.00084643760537
-0.000111337539466
-6.58114476306e-06
-1.33207939823e-07
-1.44993474774e-09
3.95684993933e-12
3.28826579712e-12
3.24786203901e-13
0.130443895875
0.187679011459
0.308453977215
0.567557204924
0.803470818699
-0.0915122373643
-0.6527994191
-0.680502873652
-0.417184748839
-0.173838636059
-0.0496679381815
-0.00734688692014
-0.000880101036863
-0.000132884357642
-1.04975822756e-05
-2.85690077911e-07
-2.897465629e-09
-1.2368617553e-11
3.60162042182e-12
4.24764256474e-13
0.228390004947
0.32548651406
0.51472548409
0.578342546909
-0.000289744266765
-0.481131832361
-0.652044286249
-0.530985629685
-0.301920168027
-0.126992724856
-0.038603645494
-0.00669732730725
-0.000913329873434
-0.000155165949953
-1.58683948947e-05
-5.55542548404e-07
-5.61158821922e-09
-3.47430851285e-11
3.69399558715e-12
5.36173011384e-13
3.56127422978e-31
2.72859170732e-32
2.24317226632e-30
2.56711186959e-31
1.21076672366e-29
1.49488798973e-30
5.29628573045e-29
5.72729507415e-30
1.95015246706e-28
1.83566450263e-29
6.54631779746e-28
5.51732055487e-29
2.11322217555e-27
1.62977332859e-28
6.75515785221e-27
4.84565588256e-28
2.16721739348e-26
1.46541703087e-27
6.96968095981e-26
4.49466520768e-27
2.21647896248e-25
1.37803170605e-26
6.84061899836e-25
4.09860385876e-26
2.01625124436e-24
1.16494079954e-25
5.62613329791e-24
3.15871095637e-25
1.48449024439e-23
8.1400839961e-25
3.71948292854e-23
2.00103043086e-24
8.91122826034e-23
4.72357393493e-24
2.05570514176e-22
1.07810512229e-23
4.58865889306e-22
2.39113478233e-23
9.93445352782e-22
5.1707336968e-23
2.08832895239e-21
1.08994760792e-22
4.26657386073e-21
2.23854756612e-22
8.47936608387e-21
4.48360377879e-22
1.63937963843e-20
8.75851239742e-22
3.08045859999e-20
1.66738218269e-21
5.61734804792e-20
3.09260253066e-21
9.93158523769e-20
5.5720755659e-21
1.70144477892e-19
9.74378892137e-21
2.82311745992e-19
1.65330801655e-20
4.53570256843e-19
2.72453079569e-20
7.05707454479e-19
4.37457437057e-20
1.0641732281e-18
6.89608404175e-20
1.55944264803e-18
1.08514469751e-19
2.23642800155e-18
1.75741043408e-19
3.18259619253e-18
3.05632103158e-19
4.5924578731e-18
5.90932973826e-19
6.90870711724e-18
1.27009923021e-18
1.11307235426e-17
2.93264143414e-18
1.94547157172e-17
6.97473369355e-18
3.65103178401e-17
1.65579474129e-17
7.16158890265e-17
3.85304361498e-17
1.42628648192e-16
8.70350969378e-17
2.82085836106e-16
1.89849878882e-16
5.46297228943e-16
3.98744249436e-16
1.02768000034e-15
8.04990877805e-16
1.8691781126e-15
1.56006785367e-15
3.27723205219e-15
2.89865558819e-15
5.52776815e-15
5.15758847029e-15
8.96099437951e-15
8.78322051434e-15
1.39683008855e-14
1.43274269127e-14
2.09847075587e-14
2.24448430554e-14
3.05209058486e-14
3.39338140015e-14
4.32701838481e-14
4.98706561542e-14
6.03442806231e-14
7.19252849247e-14
8.363064993e-14
1.02867924878e-13
1.16171647552e-13
1.47069009982e-13
1.62574885323e-13
2.11049231326e-13
2.28309938523e-13
3.01461773179e-13
3.16956546885e-13
4.16698296417e-13
4.26528977914e-13
5.08680825234e-13
)
;

boundaryField
{
    inletfuel
    {
        type            calculated;
        value           uniform 0;
    }
    inletair
    {
        type            calculated;
        value           uniform 0;
    }
    outlet
    {
        type            calculated;
        value           uniform 0;
    }
    axis
    {
        type            empty;
    }
    leftside
    {
        type            calculated;
        value           uniform 0;
    }
    burnerwall
    {
        type            calculated;
        value           uniform 0;
    }
    front
    {
        type            wedge;
    }
    back
    {
        type            wedge;
    }
}


// ************************************************************************* //
