/*--------------------------------*- C++ -*----------------------------------*\
  =========                 |
  \\      /  F ield         | OpenFOAM: The Open Source CFD Toolbox
   \\    /   O peration     | Website:  https://openfoam.org
    \\  /    A nd           | Version:  dev
     \\/     M anipulation  |
\*---------------------------------------------------------------------------*/
FoamFile
{
    version     2.0;
    format      ascii;
    class       volScalarField;
    location    "0.3";
    object      edc::YStar_C2H4;
}
// * * * * * * * * * * * * * * * * * * * * * * * * * * * * * * * * * * * * * //

dimensions      [0 0 0 0 0 0 0];

internalField   nonuniform List<scalar> 
1629
(
1.35250210488e-20
1.2637858035e-20
9.98591768435e-21
1.8918957142e-18
2.51026214921e-18
4.18723101076e-18
1.44874050935e-16
2.90434463385e-16
1.01010746662e-15
8.40372642155e-15
2.47436693556e-14
1.61558539805e-13
3.7518952647e-13
1.16863876355e-12
6.22938217749e-12
1.6657642546e-11
5.59844348518e-11
2.65838822822e-10
6.28910225619e-10
2.12205897395e-09
8.870556826e-09
1.81180962501e-08
5.84724430507e-08
2.24874138284e-07
3.23805132084e-07
9.89689900988e-07
3.75952422183e-06
1.5047577356e-06
3.61017857389e-06
1.05553981059e-05
4.24811597305e-06
8.25239991189e-06
1.93424326198e-05
8.99701660227e-06
1.47671527982e-05
2.89161868035e-05
1.61016447807e-05
2.33784771283e-05
4.01254022054e-05
2.94329422032e-05
4.11234997783e-05
7.08500240873e-05
6.24861858035e-05
8.82350036277e-05
0.000159165728135
0.000133084023185
0.000182820757188
0.000315297832968
0.00025362088849
0.000331097424036
0.000526009148283
0.000426106709515
0.000527799257767
0.000770538598284
0.000645458616361
0.000764441871448
0.00103754160112
0.000907452720247
0.00103846624014
0.00133261676777
0.00121468443978
0.00135657354857
0.00167292520312
0.00157527285158
0.00172921357133
0.00207207699484
0.00199622362186
0.00216222687691
0.00253069011652
0.00247725367017
0.00265221948113
0.00303766031287
0.00300999880924
0.00318849899163
0.00357821364951
0.00358417158804
0.00376110037166
0.00414472353023
0.0041954219989
0.00436821590598
0.00474178864446
0.00484705712033
0.00501562893053
0.00538023354388
0.0055444667012
0.00570935083475
0.00606645193582
0.00628778351604
0.00644840269936
0.00679639300227
0.00707027265849
0.00722484149952
0.0075595148538
0.00788354397935
0.00803035032024
0.00834805056969
0.00872285421818
0.00886129501535
0.0091610377486
0.00958808573148
0.00971863010633
0.0100016931509
0.0104807091832
0.010604074765
0.0108720181486
0.0114000982484
0.011516586124
0.0117698922922
0.0123419099513
0.012451355243
0.0126895058689
0.013299615434
0.0134017815178
0.0136242028284
0.0142674904002
0.0143624449885
0.0145693025837
0.0152428924436
0.0153310953478
0.0155234184316
0.0162261155456
0.0163082440166
0.0164875011397
0.0172174367073
0.0172940756071
0.0174614928444
0.0182134815545
0.0182848728247
0.0184409036833
0.0192055335136
0.019271531672
0.0194157875873
0.0201814332762
0.0202416899877
0.0203733668187
0.0211300620806
0.0211842956793
0.0213027645221
0.0220453906747
0.0220935333884
0.0221986442128
0.0229276517068
0.0229697757578
0.023061672579
0.0237798009579
0.0238158376695
0.0238943282331
0.0245979059185
0.0246272717706
0.0246910138415
0.0253570358981
0.0253784083019
0.0254244472473
0.0260007221548
0.026012238897
0.0260364859856
0.026445754885
0.0264456818222
0.0264443922247
0.0266032242157
0.0265906618702
0.0265619515995
0.0263978401948
0.026372830512
0.026316857745
0.0257684017188
0.0257314419864
0.0256493047998
0.0246520548836
0.0246035988399
0.0244962880565
0.0229754456533
0.0229159925938
0.0227846014889
0.020675606477
0.0206064991446
0.0204540199436
0.017690831044
0.0176139495098
0.0174445331953
0.0140111035934
0.0139297146836
0.0137505770046
0.00970519350593
0.00962386596199
0.0094450603441
0.00515256612523
0.00507877934664
0.00491681628892
8.53107299339e-13
2.35947465224e-11
8.35910817889e-10
2.56613270776e-08
6.6770737303e-07
1.26929625782e-05
2.7645484521e-05
4.13682093375e-05
5.28535934436e-05
6.63307605228e-05
0.000128041416687
0.000307919271914
0.000571989709586
0.000868791692559
0.00116273732042
0.00145273656283
0.00176627227508
0.0021363193398
0.00257397292438
0.00306575288516
0.00358871295845
0.00412594232752
0.00467738033335
0.00525818083861
0.00588469661731
0.00656130106334
0.00727832283683
0.00802199517994
0.00878637000003
0.00957472889702
0.0103931824321
0.0112434848967
0.0121216162666
0.0130204119741
0.0139333943536
0.0148570999584
0.015791356794
0.016737627711
0.0176954017741
0.0186590473095
0.0196174556599
0.0205573396759
0.0214681397624
0.0223452116742
0.0231895980518
0.0240032357824
0.0247788623742
0.025486962151
0.0260679262217
0.0264396539063
0.026518611805
0.0262352966717
0.0255311013783
0.0243428131632
0.0225974057955
0.0202374255257
0.0172044574203
0.0134972733975
0.00919275364697
0.00468898902375
2.44185614693e-17
1.20700969848e-16
2.98630543773e-16
4.49864723195e-16
3.9918092694e-16
2.30418596169e-16
9.41626976565e-17
2.88368521669e-17
6.93581044512e-18
1.34578375637e-18
2.1364782006e-19
2.80341858225e-20
3.06624096456e-21
2.81814205101e-22
2.19617118914e-23
1.46768344993e-24
8.54748092555e-26
4.42557179629e-27
2.06122518216e-28
4.79800550486e-30
4.43086725841e-16
1.9687993329e-15
5.73703157489e-15
9.63570298072e-15
8.14073117626e-15
4.22914443271e-15
1.52740661465e-15
4.12975911435e-16
8.8504719722e-17
1.54201791601e-17
2.21579184167e-18
2.65539254469e-19
2.67932801659e-20
2.29743880196e-21
1.69174645632e-22
1.08425042572e-23
6.16747996069e-25
3.1912448265e-26
1.47994808877e-27
3.37540552495e-29
1.06286863346e-14
1.96022217129e-14
6.57776740311e-14
1.21988357369e-13
9.70928927894e-14
4.56595390259e-14
1.48078095852e-14
3.62187637434e-15
7.09081347951e-16
1.13546280103e-16
1.51038351888e-17
1.68900143346e-18
1.60396352402e-19
1.30637869464e-20
9.22971710949e-22
5.74220112648e-23
3.21516691569e-24
1.67251419566e-25
7.80942783504e-27
1.68095356283e-28
4.68543439978e-13
2.34062639822e-13
7.03211282976e-13
1.24658131214e-12
9.16648677656e-13
3.97933275555e-13
1.19264988469e-13
2.72880390982e-14
5.0230778516e-15
7.60876734612e-16
9.63830229923e-17
1.03333621084e-17
9.47053976049e-19
7.49310004897e-20
5.17745043139e-21
3.17370018537e-22
1.76647495499e-23
9.2509941825e-25
4.42834047931e-26
1.17126971546e-27
3.04166394449e-11
7.3545431016e-12
1.07755047097e-11
1.41595258119e-11
8.96870436622e-12
3.52707218486e-12
9.69068177204e-13
2.06002745617e-13
3.54431113794e-14
5.06702354634e-15
6.11893492021e-16
6.31248452463e-17
5.61372841752e-18
4.34228565031e-19
2.95354983179e-20
1.79425323326e-21
9.96779434994e-23
5.25905692319e-24
2.57800444693e-25
8.51713175432e-27
1.70641007412e-09
6.79416975212e-10
2.87252797243e-10
1.8485634148e-10
8.95483280782e-11
3.09492133358e-11
7.72958834383e-12
1.50529397131e-12
2.40441428968e-13
3.237997163e-14
3.73236222915e-15
3.7171836343e-16
3.2217921503e-17
2.4482229849e-18
1.64693486119e-19
9.95299772872e-21
5.5296170618e-22
2.93333639724e-23
1.4506910221e-24
5.3823907822e-26
6.98907781906e-08
7.73612839547e-08
1.57657582758e-08
3.6606743315e-09
1.00995877533e-09
2.67399331616e-10
5.79936364052e-11
1.02213698854e-11
1.51424007453e-12
1.92865767079e-13
2.13583946718e-14
2.06877530501e-15
1.76047150003e-16
1.32315578625e-17
8.85364283643e-19
5.34469915325e-20
2.97401817249e-21
1.58067294437e-22
7.75422634409e-24
3.00161063594e-25
2.37517870103e-06
1.76082059812e-13
9.73054064815e-07
1.21731724029e-07
1.44155739946e-08
2.21773178843e-09
3.81507156582e-10
6.04129397818e-11
8.41292628748e-12
1.03144123851e-12
1.1161995431e-13
1.06737948342e-14
9.03168502272e-16
6.78360921011e-17
4.55104406205e-18
2.75903584885e-19
1.54068203008e-20
8.17889091376e-22
3.93097301095e-23
1.50663664834e-24
6.27506061564e-05
0.000921123299764
2.94402648719e-05
1.46763394954e-06
1.15540479521e-07
1.29311027144e-08
1.87463594726e-09
2.81269199502e-10
3.87535253717e-11
4.76763156628e-12
5.20490992497e-13
5.03342160097e-14
4.31246500818e-15
3.2811511574e-16
2.22880458437e-17
1.36553453468e-18
7.67203822513e-20
4.0601371085e-21
1.897441585e-22
6.95972354238e-24
9.62665952534e-05
0.000531732678403
5.17511089219e-05
2.31505714938e-06
2.42370428714e-07
3.4372856424e-08
5.78729758752e-09
9.69597767202e-10
1.45090698345e-10
1.89598431192e-11
2.16727581508e-12
2.17506441376e-13
1.92243454124e-14
1.50182059851e-15
1.04260473146e-16
6.49272988441e-18
3.67867104521e-19
1.93837733739e-20
8.77186824648e-22
3.02232084111e-23
0.000110462344862
0.00035099082538
7.05206242478e-05
6.4986099032e-06
8.49356466095e-07
1.1655637521e-07
1.87103381723e-08
3.1858002238e-09
5.01838861513e-10
6.94949639896e-11
8.39055472916e-12
8.83961214264e-13
8.14528722255e-14
6.5872255683e-15
4.69964515715e-16
2.98359164305e-17
1.70584770023e-18
8.93625325927e-20
3.90754597697e-21
1.25382605329e-22
0.000116311426013
0.00027473539666
5.21945106757e-14
8.76009653898e-06
1.8035910596e-06
3.01391240419e-07
5.1698199366e-08
9.43846399804e-09
1.61777108459e-09
2.42361160877e-10
3.1285955063e-11
3.48382509154e-12
3.35846301464e-13
2.81534965263e-14
2.06386729804e-15
1.33413696758e-16
7.68285306971e-18
3.99208043197e-19
1.68508661417e-20
5.02320733216e-22
0.000132590885189
0.000310640068633
0
2.85140865093e-05
4.47570991657e-06
7.62758321453e-07
1.42874381481e-07
2.8713481514e-08
5.39054549015e-09
8.69587460525e-10
1.18791648748e-10
1.38204645011e-11
1.3791875279e-12
1.18802491178e-13
8.88778143299e-15
5.81941564729e-16
3.3623669413e-17
1.72846147777e-18
7.04564959691e-20
1.95555040255e-21
0.000324961996708
0.00165982426487
0.0156897348368
0.000749479316184
5.29674082125e-05
5.528512017e-06
7.51454099651e-07
1.26577728904e-07
2.21002060635e-08
3.48944745059e-09
4.76313363921e-10
5.5868736167e-11
5.64288208748e-12
4.92389886537e-13
3.72558290443e-14
2.45728876984e-15
1.42023237503e-16
7.21623920716e-18
2.84827163761e-19
7.4078238286e-21
0.000841765463856
0.00433849283035
0.032213870198
0.00262024080456
0.000275003213704
3.36146802997e-05
4.16463385624e-06
5.91560775938e-07
9.22345748235e-08
1.38123319648e-08
1.8481638868e-09
2.16181794272e-10
2.19735381727e-11
1.93744979662e-12
1.48190257382e-13
9.85390122389e-15
5.70782138714e-16
2.87548761809e-17
1.10559419178e-18
2.72167240311e-20
0.00139006279796
0.00524276072869
0.0180388198694
2.67963979728e-16
0.000339015446868
6.66295695127e-05
1.0507110902e-05
1.64594907722e-06
2.71069344681e-07
4.26850140569e-08
5.97193480476e-09
7.25656210429e-10
7.62251866297e-11
6.91502291072e-12
5.41648695505e-13
3.66728838418e-14
2.14675960861e-15
1.08075363077e-16
4.08535815719e-18
9.64180055562e-20
0.00184367104347
0.00527685762952
0.0118463984834
4.5845561251e-18
0.00034874718067
8.83890238475e-05
1.71301163851e-05
3.11916151372e-06
5.78345068105e-07
1.01448885631e-07
1.5592104045e-08
2.04725203562e-09
2.29059697098e-10
2.18766937019e-11
1.78610840272e-12
1.24864642173e-13
7.47343016735e-15
3.79964992388e-16
1.42758505429e-17
3.2758044127e-19
0.00217936255274
0.00498551537611
0.0084475604635
0.000843140208442
0.000410770339357
0.000106294845442
2.34473232793e-05
4.87849511993e-06
1.02083112738e-06
2.01387163956e-07
3.45349661508e-08
4.98719615558e-09
6.04539746619e-10
6.17187040512e-11
5.32290580974e-12
3.88769169689e-13
2.40463687105e-14
1.24731393429e-15
4.70713248102e-17
1.06465921271e-18
0.00246608834123
0.00491284087721
0.00833780234175
0.0164418259367
0.00142914463578
0.000188491771792
3.67590979981e-05
7.82610178315e-06
1.73939582198e-06
3.72696922805e-07
7.00894851764e-08
1.10627815035e-08
1.45276509504e-09
1.59071461647e-10
1.45674844229e-11
1.11853921187e-12
7.19978281481e-14
3.83960250139e-15
1.46803424976e-16
3.31301371628e-18
0.00280161202302
0.00530361013923
0.0102030472558
0.0288999185886
0.00362542309208
0.000519137722099
9.09774811655e-05
1.67652285599e-05
3.40080486288e-06
7.19903028907e-07
1.40787205851e-07
2.35931286057e-08
3.30499502186e-09
3.85233047434e-10
3.73649271987e-11
3.01808781633e-12
2.02752456962e-13
1.11683798798e-14
4.35356851041e-16
9.90404692692e-18
0.00324550478312
0.00606234496094
0.0123393300472
0.0333854212792
0
0.000638633707967
0.000155495650475
3.2037656736e-05
6.51970116761e-06
1.37909517239e-06
2.77570342519e-07
4.87786554002e-08
7.21691282691e-09
8.89437899224e-10
9.10221332065e-11
7.72431647553e-12
5.4204641377e-13
3.09245655774e-14
1.23472119867e-15
2.8559032975e-17
0.00377601819127
0.00683500921578
0.013168630355
0.0273203342398
9.8954892688e-13
0.000686363192063
0.000200868342838
4.77516069532e-05
1.06039095233e-05
2.37696845273e-06
5.07766692356e-07
9.50169815009e-08
1.49489820907e-08
1.95297294689e-09
2.11072936578e-10
1.88345593253e-11
1.38267614119e-12
8.19086919593e-14
3.36318452661e-15
7.96931156545e-17
0.00433070481566
0.0073828405963
0.0127187811452
0.0197075111406
0.000722509876073
0.000783097513807
0.000240360488932
6.3810350588e-05
1.55410041638e-05
3.74125449301e-06
8.58410045585e-07
1.72875649985e-07
2.91627312026e-08
4.06153424123e-09
4.65342631433e-10
4.37866198028e-11
3.37170940681e-12
2.080248161e-13
8.81932341053e-15
2.15596478765e-16
0.00486340899776
0.00771552086448
0.0119370796256
0.0157462763146
0.00859317504455
0.00145879450897
0.000354586379168
9.39656502778e-05
2.34364802821e-05
5.79457414672e-06
1.39422576571e-06
2.99321046737e-07
5.40270424492e-08
8.02877698622e-09
9.77088495677e-10
9.71810546942e-11
7.8703363878e-12
5.07283620473e-13
2.22931446249e-14
5.65872149853e-16
0.00536632824579
0.00796962994505
0.0115034406823
0.015021483544
0.0191472121686
6.81199394467e-13
0.000391661492923
0.000126975507248
3.42446457172e-05
8.73386334713e-06
2.18243324093e-06
4.95876845638e-07
9.54862842943e-08
1.51347615835e-08
1.95826633496e-09
2.0623389018e-10
1.76068060218e-11
1.18895136609e-12
5.43583711559e-14
1.44105823736e-15
0.00586798013912
0.00829633503328
0.0116709039925
0.0163216068009
0.0288864885459
1.98473013938e-19
0.000455752540571
0.000156272293917
4.54258631312e-05
1.22097827612e-05
3.20719520477e-06
7.75548289142e-07
1.59967124689e-07
2.71352430385e-08
3.74360980019e-09
4.18566328745e-10
3.77692350987e-11
2.6797041245e-12
1.27897646268e-13
3.55967736466e-15
0.0064086897926
0.00876828490216
0.0122631577074
0.0178742700607
0.031770187701
1.4733178049e-14
0.000552916564696
0.000185281154111
5.64058154596e-05
1.59869559033e-05
4.435075738e-06
1.14490668866e-06
2.53830405942e-07
4.62515812852e-08
6.82685522738e-09
8.128086811e-10
7.7736350705e-11
5.8110045555e-12
2.90455797199e-13
8.5263992925e-15
0.00701082060548
0.00935813351224
0.0129433537288
0.0186243960578
0.0295430085045
3.3018088396e-07
0.000669867699084
0.000220592844027
6.94883307111e-05
2.05540876482e-05
5.95691014037e-06
1.62792760862e-06
3.86332209124e-07
7.55393220372e-08
1.19354267739e-08
1.51516310882e-09
1.53849325068e-10
1.21418900177e-11
6.3719276428e-13
1.98043422461e-14
0.00766705521208
0.00998475788592
0.0134641235955
0.0184642825598
0.0255473800834
0.00172093286793
0.000865540935573
0.000282813655745
9.06657604199e-05
2.72647509906e-05
8.03790439738e-06
2.28107517137e-06
5.72985426182e-07
1.19520877189e-07
2.01584838422e-08
2.72565999782e-09
2.9385070377e-10
2.45045731735e-11
1.35234125222e-12
4.46306671211e-14
0.00835276130006
0.0105863143804
0.0138071600754
0.0180026924558
0.0228743132824
0.00919988791264
2.22919966003e-15
0.000289276952952
0.000111323063145
3.56102007793e-05
1.0738359101e-05
3.14192496024e-06
8.29643246677e-07
1.83822362253e-07
3.30119307195e-08
4.74780601491e-09
5.4318585403e-10
4.78729149096e-11
2.7809620429e-12
9.76546969479e-14
0.00904916088179
0.0111574695179
0.0140998751456
0.0177851485821
0.0221610032618
0.0189909755152
1.77231695447e-19
0.000329713280784
0.000130457766519
4.40906446564e-05
1.37842649821e-05
4.18199118256e-06
1.16199329283e-06
2.73565012165e-07
5.23267764757e-08
8.00702661439e-09
9.72426178156e-10
9.06202955097e-11
5.54578056145e-12
2.07542279735e-13
0.00975738337645
0.0117378255018
0.0144778555213
0.0179877074833
0.0226791723898
0.0259047596187
0
0.000410321605943
0.000153111206213
5.31522079778e-05
1.71716721585e-05
5.39544314182e-06
1.57478141453e-06
3.93711021944e-07
8.0235015424e-08
1.3070598341e-08
1.68612292725e-09
1.66258606174e-10
1.07280604e-11
4.28448908769e-13
0.0104912476255
0.012368225896
0.0149944994662
0.0184987022606
0.0235213199557
0.0292066706279
0
0.000446751030075
0.000181353414478
6.47887141484e-05
2.13948263118e-05
6.87553299717e-06
2.0882741579e-06
5.51553976139e-07
1.19468056977e-07
2.06987498363e-08
2.83555988794e-09
2.95895110793e-10
2.01414914905e-11
8.59302169153e-13
0.0112623558926
0.0130610899681
0.0156171415798
0.0191069765502
0.0241022522164
0.0299457863211
1.92675430506e-11
2.04056897392e-09
0.000169322266087
7.43781862627e-05
2.615782151e-05
8.6354463231e-06
2.71578314786e-06
7.54384572372e-07
1.7320941549e-07
3.18698105744e-08
4.63273768607e-09
5.11465703693e-10
3.67311617541e-11
1.67516131704e-12
0.0120701075672
0.0137963781076
0.016263557688
0.0196078143416
0.0241368912695
0.02879079903
0.00045534290962
2.78298843315e-19
0.000152682772879
8.04728619053e-05
3.06732982536e-05
1.05251135163e-05
3.43590401704e-06
1.00339148177e-06
2.44114779088e-07
4.76917172318e-08
7.35576237203e-09
8.59176182611e-10
6.51064177034e-11
3.17588913582e-12
0.0129052505989
0.0145485919425
0.0168867965859
0.0199878393424
0.0239576368232
0.0276751343157
0.00528595999439
2.83396384807e-15
0.000153015512964
8.53854308189e-05
3.48059326275e-05
1.2445779684e-05
4.22200667074e-06
1.29586254843e-06
3.34082294526e-07
6.9328303092e-08
1.13501010697e-08
1.40303762938e-09
1.12218414658e-10
5.85880797566e-12
0.0137578181766
0.015305798044
0.0174925545949
0.020343290781
0.023906527562
0.0272848459409
0.010943037803
5.33958975464e-14
0.000172964969469
9.17939623689e-05
3.90238255467e-05
1.4467738623e-05
5.0801592375e-06
1.63333717827e-06
4.45425867422e-07
9.81174834169e-08
1.70471318124e-08
2.23007320816e-09
1.88283547418e-10
1.0526992402e-11
0.0146224732416
0.0160709595702
0.0181108239926
0.0207604698055
0.0240980127491
0.0274321226748
0.0153912029689
1.937186601e-19
0.000123246393658
9.53143246523e-05
4.33971094436e-05
1.66965930533e-05
6.03603809649e-06
2.02186653324e-06
5.81310920797e-07
1.35678468358e-07
2.49910059856e-08
3.45753850261e-09
3.08057957415e-10
1.84501161709e-11
0.0154989492828
0.0168532686479
0.0187664709936
0.0212708397612
0.0244881923418
0.0278145166024
0.0185648738367
1.78229080714e-19
1.68266454688e-07
8.69316226037e-05
4.66523138469e-05
1.89972054147e-05
7.07657577289e-06
2.46050188686e-06
7.43697798418e-07
1.83619326405e-07
3.58199530756e-08
5.23738093736e-09
4.92251551682e-10
3.15870318213e-11
0.0163897574908
0.017660013548
0.0194673504154
0.021860165101
0.0249777420508
0.0281974398447
0.0207857035447
3.61167561775e-17
4.96083168254e-11
7.82723533381e-05
4.86263957329e-05
2.11511394231e-05
8.14552206531e-06
2.93554957919e-06
9.31235173682e-07
2.43018174066e-07
5.01895893338e-08
7.75335030814e-09
7.68635322834e-10
5.28632588329e-11
0.017297187299
0.0184928340713
0.0202065141741
0.0224937399003
0.025474105448
0.0283915934453
0.0220052486744
1.33066116881e-15
0
6.94692940706e-05
4.94544826135e-05
2.30704478852e-05
9.20371929229e-06
3.43259779098e-06
1.14082550045e-06
3.1441773391e-07
6.87314408425e-08
1.12172796953e-08
1.17301530451e-09
8.65145954141e-11
0.0182193823424
0.0193447640395
0.0209642643016
0.0231271884611
0.0258977383723
0.0283198577915
0.0223210143875
7.07952738477e-09
1.24061784973e-23
5.59151588098e-05
4.88271889029e-05
2.47237447551e-05
1.02458809111e-05
3.94587644084e-06
1.37031637135e-06
3.98287340092e-07
9.20979410998e-08
1.58745348284e-08
1.75098303337e-09
1.38562087585e-10
0.0191479896781
0.0202005426408
0.0217138041981
0.0237189040422
0.0261980949425
0.0279793810435
0.0219714624071
1.75794596061e-05
1.43663054893e-20
2.72187370604e-05
4.53497100194e-05
2.59541599723e-05
1.12666880664e-05
4.47376765856e-06
1.61835348032e-06
4.95112025549e-07
1.20984314174e-07
2.20108144298e-08
2.56031610084e-09
2.1746306721e-10
0.0200693527873
0.0210414972656
0.0224314549425
0.0242455017787
0.0263715006767
0.0274571921032
0.0212952745675
0.000345513721377
0
2.39891919694e-06
3.85883971497e-05
2.64951426387e-05
1.22250159617e-05
5.00805530568e-06
1.88173436269e-06
6.04786477115e-07
1.5601160548e-07
2.99395669689e-08
3.67193601491e-09
3.34839957519e-10
0.020969253925
0.0218529420678
0.0231059518322
0.0247082474044
0.0264527764479
0.0268736854144
0.020581797731
0.00105266653391
0
1.12930122744e-07
3.12258833398e-05
2.62926944441e-05
1.30618130848e-05
5.5315062936e-06
2.15387982293e-06
7.25971317135e-07
1.97532962635e-07
3.99670312985e-08
5.16784901108e-09
5.0611869375e-10
0.0218380449617
0.0226285578671
0.0237381978788
0.0251192291737
0.0264715467716
0.0262777877069
0.0198837327013
0.00177877702832
6.90167568946e-15
2.8627687221e-09
2.43902807369e-05
2.5411337093e-05
1.37378176134e-05
6.02853086593e-06
2.42728371435e-06
8.56367864578e-07
2.45575261256e-07
5.23642862773e-08
7.1381898348e-09
7.51114788624e-10
0.0226726851132
0.0233689566615
0.0243329561857
0.025483638378
0.0264307095546
0.0256553803514
0.0191653833762
0.00231128554537
3.69863227116e-17
8.10746076925e-11
1.82921711694e-05
2.3902549714e-05
1.42328618955e-05
6.4919278971e-06
2.69653720214e-06
9.93544294262e-07
2.9995292379e-07
6.73680815621e-08
9.68084784775e-09
1.09481993919e-09
0.0234749358933
0.0240764155915
0.0248896728301
0.0257917881934
0.0263124928075
0.0249739449222
0.0183394172958
0.00254826243857
1.58357152888e-18
7.42296098805e-12
1.20981264426e-05
2.17254223643e-05
1.45177938389e-05
6.91855205521e-06
2.95842948703e-06
1.13524549543e-06
3.60341314356e-07
8.51851306237e-08
1.29021415322e-08
1.56833066905e-09
0.0242452769817
0.0247466713808
0.0253939232522
0.026016133948
0.0260830171963
0.0241886942304
0.0173550553896
0.00245705421927
7.40151741043e-17
3.61951775332e-13
5.60492346751e-06
1.88090495305e-05
1.45353104755e-05
7.3015690126e-06
3.21020756238e-06
1.27908586478e-06
4.26194013827e-07
1.05965731496e-07
1.69128255118e-08
2.20925626793e-09
0.0249724992135
0.0253591367479
0.0258119577482
0.026113886727
0.0257002924616
0.0232551053357
0.0161777858722
0.00206975898706
0
0
1.78631259823e-06
1.54507188414e-05
1.42317348479e-05
7.62855738764e-06
3.4485962664e-06
1.4223105511e-06
4.96626254245e-07
1.29755529956e-07
2.18175810363e-08
3.06091402198e-09
0.0256221232165
0.0258697660396
0.0260913419555
0.026033839148
0.0251225717389
0.0221370156964
0.0147943124883
0.00146595963425
8.26347583612e-15
0
5.67200615414e-07
1.21877349199e-05
1.35934205577e-05
7.88547859825e-06
3.67064204409e-06
1.5621268996e-06
5.7043722519e-07
1.56465072827e-07
2.77028909205e-08
4.17033560967e-09
0.0261316445693
0.026212767633
0.0261690427314
0.02572558583
0.0243159175869
0.0208124035839
0.0132107190976
0.000755431305658
7.78508762775e-16
0
1.96845978269e-07
9.33658893383e-06
1.26432787385e-05
8.05782728089e-06
3.87452948254e-06
1.69621748457e-06
6.46236587776e-07
1.85866901202e-07
3.46270774372e-08
5.58549958755e-09
0.0264209107676
0.0263151602818
0.0259874449115
0.0251547400606
0.0232710309835
0.0192987871215
0.0114873963444
0.000159932353036
0
0
7.13291111951e-08
6.94986999283e-06
1.14289646464e-05
8.12708219698e-06
4.0589645037e-06
1.82287492248e-06
7.22514770452e-07
2.17588919561e-07
4.26101703671e-08
7.35224433205e-09
0.0264126513147
0.0261141430944
0.025504471741
0.0243019037596
0.0219870580804
0.017606740145
0.00963602072205
2.78783340283e-06
2.10283891207e-19
0
2.93165828948e-08
5.02728820519e-06
1.00304975672e-05
8.0710506968e-06
4.2226966741e-06
1.94106806346e-06
7.97694262934e-07
2.51101245152e-07
5.16227936764e-08
9.51123995487e-09
0.0260434269778
0.0255577469998
0.0246794617967
0.0231305949412
0.0204153936288
0.015653282031
0.00754136574971
9.95785253997e-10
1.52019282967e-21
0
1.42639817866e-08
3.55458581306e-06
8.5513188026e-06
7.86664848932e-06
4.36359149014e-06
2.05040059964e-06
8.70173749095e-07
2.85705330287e-07
6.15790796639e-08
1.20970029849e-08
0.0252569537711
0.0245924373962
0.0234577129038
0.0215766814322
0.0184724939454
0.0133364463285
0.00515907535041
1.26706450544e-12
0
0
8.34002104237e-09
2.52372069221e-06
7.10484670991e-06
7.49697777214e-06
4.47526706725e-06
2.15023170606e-06
9.38162584167e-07
3.20474599798e-07
7.23260972559e-08
1.51384460093e-08
0.0239893545821
0.0231519768782
0.0217682194485
0.0195630018487
0.0160811916396
0.0106058910713
0.0026149500386
0
6.83754769807e-21
0
5.84831328818e-09
1.82364021817e-06
5.81428965904e-06
6.96862617277e-06
4.54575120745e-06
2.23928603735e-06
9.99673107347e-07
3.54233675554e-07
8.36454925017e-08
1.86630035514e-08
0.0221681037443
0.0211659035773
0.0195465286241
0.017041360137
0.0132315894201
0.00753125886682
0.000404433080061
0
0
0
4.82532271063e-09
1.34089337134e-06
4.73834909485e-06
6.31361061008e-06
4.55886210763e-06
2.3159549637e-06
1.05279070312e-06
3.85644648289e-07
9.52790279457e-08
2.27017292951e-08
0.0197422864178
0.0186000291632
0.0167888903021
0.0140600437906
0.0100497881287
0.00434812076623
5.81418257104e-09
0
6.75259318385e-19
0
5.06904597149e-09
1.02893544757e-06
3.8868524409e-06
5.58376430769e-06
4.49696464537e-06
2.37798530146e-06
1.09581555377e-06
4.13305441752e-07
1.06962180166e-07
2.7291545001e-08
0.0166569711086
0.0154059444948
0.0134524515184
0.0105723003276
0.00647213372993
0.00121837666343
9.04357068385e-18
0
4.7475085209e-14
0
6.60579816524e-09
8.31020240758e-07
3.2161953e-06
4.84950508388e-06
4.34872910276e-06
2.42276297646e-06
1.12755467368e-06
4.35871844177e-07
1.18445046611e-07
3.24660910741e-08
0.0129208118413
0.0116152268526
0.0096049580991
0.00670299876507
0.00277289946829
5.66962631052e-08
0
0
5.90439983121e-14
2.3399657639e-14
9.81692459811e-09
6.97693690898e-07
2.67842626255e-06
4.16575031759e-06
4.11496067851e-06
2.44809826984e-06
1.14775132124e-06
4.52230144734e-07
1.29500827787e-07
3.82311000109e-08
0.0086195937238
0.0073327084171
0.00538252694445
0.00267962404394
4.23374870204e-05
9.50075710997e-25
1.76844765549e-17
0
0
4.03772246592e-14
1.52400831249e-08
5.99541640417e-07
2.23936374156e-06
3.56300757523e-06
3.80508606949e-06
2.45125221245e-06
1.15698344767e-06
4.61412496741e-07
1.39820546437e-07
4.45295655229e-08
0.00417364249837
0.00303608103095
0.00140563280898
1.42544224081e-05
0
0
0
9.65661389744e-13
3.70570163191e-15
1.32231473428e-12
2.03155486019e-08
5.00676638986e-07
1.85918014199e-06
3.03766281373e-06
3.44194722547e-06
2.42734960912e-06
1.15209734506e-06
4.61698690087e-07
1.48747137665e-07
5.11393233075e-08
8.29013982282e-27
1.62975204377e-26
1.04178824358e-26
1.85741685361e-26
2.99291331349e-26
3.70585789898e-26
1.22020796903e-25
1.08353140632e-25
4.85338169168e-25
3.12410956288e-25
1.82450248019e-24
9.20553063759e-25
6.59685213252e-24
2.76337057855e-24
2.32751238952e-23
8.43770714464e-24
8.09652726603e-23
2.62132081398e-23
2.79591980036e-22
8.28746379317e-23
9.6024264238e-22
2.6600360874e-22
3.26885843455e-21
8.61507683337e-22
1.09562664691e-20
2.79096083735e-21
3.59045638454e-20
8.96405423678e-21
1.14484352874e-19
2.83462170199e-20
3.54528371384e-19
8.79004201823e-20
1.0669711091e-18
2.66949529097e-19
3.12644487806e-18
7.94240080217e-19
8.93429553764e-18
2.31672975669e-18
2.49138985517e-17
6.62919049804e-18
6.77840968037e-17
1.85866237955e-17
1.7981589663e-16
5.09640139114e-17
4.6461612425e-16
1.36458848241e-16
1.16808990674e-15
3.56301160811e-16
2.85521284109e-15
9.06255921946e-16
6.78165249685e-15
2.24481977183e-15
1.56518207123e-14
5.40816778104e-15
3.50974286283e-14
1.26626878264e-14
7.64499595144e-14
2.87979511196e-14
1.61752738769e-13
6.35940266443e-14
3.32522981541e-13
1.36365058859e-13
6.64498677186e-13
2.84024834927e-13
1.29158875846e-12
5.74901688229e-13
2.44403411105e-12
1.13177137996e-12
4.50834664343e-12
2.16945752219e-12
8.11772841301e-12
4.05429085927e-12
1.42804843927e-11
7.39393606691e-12
2.45572814833e-11
1.31683454321e-11
4.13112384127e-11
2.29191073759e-11
6.80593173124e-11
3.90205586504e-11
1.09926602333e-10
6.50493725173e-11
1.74173294392e-10
1.06251377698e-10
2.70787767995e-10
1.7010000963e-10
4.1319063474e-10
2.66955047654e-10
6.19029768113e-10
4.10804268205e-10
9.10850442715e-10
6.19970396866e-10
1.31630916343e-09
9.17558908564e-10
1.86777916102e-09
1.33149054782e-09
2.60141808984e-09
1.89411507597e-09
3.55605820745e-09
2.64170873207e-09
4.77212805556e-09
3.61397448218e-09
6.29153973346e-09
4.85413440904e-09
8.15808916399e-09
6.40904859367e-09
1.04193043153e-08
8.3301650329e-09
1.31260139575e-08
1.06711284766e-08
1.63239563185e-08
1.34750866917e-08
2.00431545811e-08
1.67648517984e-08
2.42690876573e-08
2.05109129312e-08
2.89104056915e-08
2.45828438784e-08
3.42306575403e-08
2.95661403695e-08
)
;

boundaryField
{
    inletfuel
    {
        type            calculated;
        value           uniform 0;
    }
    inletair
    {
        type            calculated;
        value           uniform 0;
    }
    outlet
    {
        type            calculated;
        value           uniform 0;
    }
    axis
    {
        type            empty;
    }
    leftside
    {
        type            calculated;
        value           uniform 0;
    }
    burnerwall
    {
        type            calculated;
        value           uniform 0;
    }
    front
    {
        type            wedge;
    }
    back
    {
        type            wedge;
    }
}


// ************************************************************************* //
