/*--------------------------------*- C++ -*----------------------------------*\
  =========                 |
  \\      /  F ield         | OpenFOAM: The Open Source CFD Toolbox
   \\    /   O peration     | Website:  https://openfoam.org
    \\  /    A nd           | Version:  dev
     \\/     M anipulation  |
\*---------------------------------------------------------------------------*/
FoamFile
{
    version     2.0;
    format      ascii;
    class       volScalarField;
    location    "0.3";
    object      edc::YStar_H;
}
// * * * * * * * * * * * * * * * * * * * * * * * * * * * * * * * * * * * * * //

dimensions      [0 0 0 0 0 0 0];

internalField   nonuniform List<scalar> 
1629
(
2.32860388764e-24
2.2197926639e-24
1.83286589195e-24
3.20561617246e-22
4.38822343071e-22
7.76113270074e-22
2.38026049032e-20
4.94807451271e-20
1.8571326183e-19
1.17734884323e-18
3.6490717937e-18
3.07374313428e-17
5.93609765467e-17
2.27623974474e-16
1.57887058611e-15
3.43300123083e-15
1.62285153729e-14
8.79152812231e-14
1.00534003731e-13
1.08352898812e-13
2.7640793321e-13
1.34543249735e-12
6.11762673719e-12
5.2254459072e-11
4.66211389308e-12
1.5785105164e-11
6.71060163248e-11
8.52601528932e-12
1.86909428393e-11
4.40686691495e-11
9.66460598574e-12
1.49778247397e-11
2.28769653185e-11
8.2351343648e-12
1.03660603597e-11
1.34679942528e-11
6.0900659163e-12
7.20710841068e-12
1.05354281035e-11
3.9720756944e-12
4.91196619778e-12
8.02332988334e-12
2.91767620361e-12
3.80072792064e-12
7.15622554669e-12
2.79788352797e-12
3.89603909756e-12
8.07501100181e-12
3.56668451559e-12
5.12172003077e-12
1.0316949463e-11
4.93767312225e-12
6.92209422969e-12
1.2829518101e-11
6.69961540053e-12
8.98926581448e-12
1.55831061435e-11
8.82818673144e-12
1.14181791682e-11
1.91395117542e-11
1.14963426701e-11
1.46348710722e-11
2.46202763829e-11
1.50935517368e-11
1.92891715675e-11
3.34230039485e-11
2.03811043156e-11
2.63984645159e-11
4.77259435047e-11
2.89412804806e-11
3.82286766192e-11
7.1625221041e-11
4.41485209525e-11
5.91311936518e-11
1.11244990987e-10
7.18030030084e-11
9.56789017288e-11
1.73150981371e-10
1.19587564133e-10
1.55329510146e-10
2.61496654102e-10
1.93697995399e-10
2.41992940869e-10
3.72645245106e-10
2.92372229507e-10
3.49555519561e-10
4.90346279795e-10
4.00371424654e-10
4.58997804892e-10
5.93883133996e-10
4.97286544554e-10
5.51228527869e-10
6.71270547493e-10
5.71619331179e-10
6.19146835522e-10
7.24450899573e-10
6.2541502778e-10
6.68471517475e-10
7.65284292338e-10
6.7255276124e-10
7.14867881007e-10
8.11820350644e-10
7.3144243874e-10
7.76406044373e-10
8.81867469019e-10
8.22573055045e-10
8.74301726151e-10
9.96815002647e-10
9.72576474693e-10
1.0354706535e-09
1.1850213052e-09
1.21849778202e-09
1.29843175223e-09
1.48810672089e-09
1.61347867973e-09
1.71712829435e-09
1.96223680618e-09
2.2272740267e-09
2.36256705405e-09
2.68080471532e-09
3.15345686057e-09
3.33063639355e-09
3.7426618409e-09
4.53648196644e-09
4.76869086273e-09
5.30698056764e-09
6.63062130477e-09
6.94142516821e-09
7.66053429279e-09
9.89902649165e-09
1.03276748062e-08
1.13186539488e-08
1.51648857191e-08
1.57757970178e-08
1.71879951054e-08
2.38540249873e-08
2.47514875652e-08
2.68251660843e-08
3.83495470717e-08
3.96959649688e-08
4.28025012825e-08
6.24266203572e-08
6.44596663421e-08
6.91374355113e-08
1.0164327786e-07
1.04676994731e-07
1.116259162e-07
1.63357169476e-07
1.67751297789e-07
1.7776342274e-07
2.55931427644e-07
2.62025535955e-07
2.75835147098e-07
3.8689939317e-07
3.94931552888e-07
4.13043315874e-07
5.60877005148e-07
5.70960240117e-07
5.93608539724e-07
7.79942411605e-07
7.92187901624e-07
8.19629982804e-07
1.04955729635e-06
1.06433556321e-06
1.09742357245e-06
1.38839807703e-06
1.40655323276e-06
1.44720406594e-06
1.83628983753e-06
1.85926389839e-06
1.91068466919e-06
2.45940069041e-06
2.48930182781e-06
2.55623782355e-06
3.35802861402e-06
3.39789404504e-06
3.48707069081e-06
4.67581157558e-06
4.72967738656e-06
4.8500428119e-06
6.60836819488e-06
6.68099118787e-06
6.84290578375e-06
9.37246485356e-06
9.46641331287e-06
9.67474303336e-06
1.29910415545e-05
1.3100331857e-05
1.33413412723e-05
1.54963011816e-16
6.75296238645e-15
4.68682422275e-15
1.25937453862e-12
4.97647149665e-10
2.41408964934e-10
8.31410581166e-11
2.82561798176e-11
2.14445814863e-11
2.55516587766e-11
1.95016164616e-11
1.78980303389e-11
2.05923212554e-11
2.48428346131e-11
2.83271157851e-11
3.26340774786e-11
4.03616573984e-11
5.48764756102e-11
7.95823297732e-11
1.18190579536e-10
1.75784368575e-10
2.56377855878e-10
3.60018008998e-10
4.81512161602e-10
6.05849266187e-10
7.13533157541e-10
7.92496689285e-10
8.43233474827e-10
8.7679436578e-10
9.10453691846e-10
9.62634707326e-10
1.05002944859e-09
1.19432187868e-09
1.42713274857e-09
1.79334140516e-09
2.3532480789e-09
3.18153869872e-09
4.38411517464e-09
6.13973739808e-09
8.76950991005e-09
1.28444009915e-08
1.9359590431e-08
3.00084542969e-08
4.75561362356e-08
7.62539456598e-08
1.22116544841e-07
1.9274336952e-07
2.96311690849e-07
4.3968199922e-07
6.26713565855e-07
8.59606425585e-07
1.14556811704e-06
1.50635126225e-06
1.98550068517e-06
2.65356069336e-06
3.61661320363e-06
5.02456764338e-06
7.07677316166e-06
9.97314465508e-06
1.36833357148e-05
1.19102766289e-27
2.46942118762e-26
7.8141397741e-26
1.39847765316e-25
1.33740405072e-25
7.54595254217e-26
2.84918233865e-26
7.80457623103e-27
1.64555914426e-27
2.76103522078e-28
3.75303299846e-29
4.18486201079e-30
3.86575966632e-31
2.98446614916e-32
1.94343077598e-33
1.079220236e-34
5.18851599429e-36
2.19803934187e-37
8.30151586922e-39
1.05126647351e-40
2.57232598777e-26
4.51342688361e-25
1.98566634009e-24
4.39030577266e-24
3.77108356528e-24
1.72198557226e-24
5.33532473586e-25
1.24125476718e-25
2.28175178115e-26
3.38270758076e-27
4.102212473e-28
4.12010700651e-29
3.46369492302e-30
2.46149586151e-31
1.49450678521e-32
7.85382956387e-34
3.63933149835e-35
1.51962412894e-36
5.65741441488e-38
7.58802781233e-40
1.00939269664e-24
8.47294905218e-24
7.47295847028e-23
2.82418569029e-22
1.69005672656e-22
3.55046996554e-23
6.88748494473e-24
1.21369285786e-24
1.92157117616e-25
2.55823398586e-26
2.82879013401e-27
2.61612049578e-28
2.04376383992e-29
1.3624717581e-30
7.83925069741e-32
3.9497855532e-33
1.77962322352e-34
7.38411898908e-36
2.74965386834e-37
3.72178500351e-39
1.80138411542e-16
4.0910615127e-21
1.66122141259e-20
1.8442284495e-20
8.51801856188e-21
1.28815120896e-21
1.99749408478e-22
1.24788804156e-23
1.46023887131e-24
1.72791435701e-25
1.7861567366e-26
1.56665111119e-27
1.1702233764e-28
7.51205315896e-30
4.19135933594e-31
2.06375009858e-32
9.17331398223e-34
3.80844993454e-35
1.45165753775e-36
2.37404237715e-38
7.99145446569e-15
1.17129805604e-18
1.76234148457e-18
2.35397330863e-18
7.92826420722e-19
9.52310621213e-20
5.45208468021e-21
6.54847722781e-22
1.37437361312e-23
1.18192813387e-24
1.1014079128e-25
9.14695769587e-27
6.5645526847e-28
4.08617705543e-29
2.2281991209e-30
1.08041446058e-31
4.76816179751e-33
1.98785194949e-34
7.77464393255e-36
1.61811448625e-37
6.90518582756e-15
1.4970851543e-14
1.25307978062e-15
3.39625710741e-16
6.8501990396e-17
6.47667308681e-18
3.00647026968e-19
8.41022902551e-21
5.19086934557e-22
8.96541328887e-24
6.45754537954e-25
4.98826613521e-26
3.45009088406e-27
2.0947942996e-28
1.1234173315e-29
5.39471848735e-31
2.37336991716e-32
9.93689165752e-34
3.93078308072e-35
9.04419952904e-37
9.71400193465e-12
3.36721518997e-11
1.09003975929e-12
5.24913464082e-14
3.8235545804e-15
3.1676434398e-16
1.27701458517e-17
2.9049008942e-19
4.66536163545e-21
1.02593609341e-22
3.68812940229e-24
2.46536437952e-25
1.64705961805e-26
9.85073665713e-28
5.24329289245e-29
2.51175382544e-30
1.10636300257e-31
4.64671860523e-33
1.82891296462e-34
4.28445774701e-36
1.58873279327e-09
0.000104156641851
4.87088811102e-11
1.15550783091e-12
4.28349057679e-14
5.04883047654e-15
2.64076518223e-16
5.73007712043e-18
8.41799526503e-20
9.79340098102e-22
2.21702873544e-23
1.08112376975e-24
6.91963882821e-26
4.14268463654e-27
2.22053186014e-28
1.07257402084e-29
4.76006976702e-31
2.00619354041e-32
7.77328579546e-34
1.75932013095e-35
6.5225394892e-10
6.37576516107e-08
4.28831683281e-11
9.56495917371e-13
5.89736763031e-14
5.38866935236e-15
7.51528824676e-16
3.1181206645e-17
6.50609002505e-19
9.29160765564e-21
1.9119524821e-22
4.29320835681e-24
2.51079672019e-25
1.53159267016e-26
8.42298412547e-28
4.15786262251e-29
1.87445567003e-30
7.94796062452e-32
3.01699790729e-33
6.39693498972e-35
1.41221312631e-10
2.57206116534e-08
1.56199924272e-11
2.89005495739e-13
4.57631080478e-14
5.42126974811e-15
1.1811391067e-15
9.05542966655e-17
2.94521309459e-18
5.65631634884e-20
2.67369816708e-21
1.71857778417e-23
8.1160174685e-25
5.01231833215e-26
2.86671069535e-27
1.46293354694e-28
6.7507116243e-30
2.88956546459e-31
1.0734038564e-32
2.10172716241e-34
3.21569755727e-11
5.19535854675e-09
3.29631768001e-11
2.4321276906e-13
4.42685399361e-14
5.52969345606e-15
1.7265457195e-15
2.20118057231e-16
1.06010447119e-17
2.70601881947e-19
4.45077313106e-21
7.5889148535e-23
2.52463856961e-24
1.49235792817e-25
8.88101479057e-27
4.71314531853e-28
2.23669094641e-29
9.68993754759e-31
3.52433336507e-32
6.34240010745e-34
9.38050598464e-11
3.5487006534e-08
4.78784978073e-05
1.19346151487e-11
6.3990429858e-13
3.31239491398e-14
4.29354643932e-15
7.17178494575e-16
4.13853925205e-17
1.23225415861e-18
2.346131293e-20
6.64641060183e-22
8.35382015299e-24
4.19994496417e-25
2.55164439722e-26
1.40739933146e-27
6.87852476767e-29
3.01983568249e-30
1.07641536439e-31
1.78130032057e-33
1.43833568077e-10
5.97357263186e-08
0.00029871614841
6.07494218986e-11
5.08010469425e-13
5.28241118956e-14
4.2829310004e-15
1.3793601127e-15
1.26472619506e-16
4.68288413648e-18
1.0613230012e-19
2.15871133102e-21
3.05966044379e-23
1.15845957589e-24
6.88640136984e-26
3.92862064394e-27
1.97755167267e-28
8.80598107252e-30
3.08103341149e-31
4.70770530248e-33
9.67473450629e-11
3.88500064443e-08
7.62141902536e-05
3.25647112766e-11
3.2491523273e-13
4.48742800432e-14
3.63958210829e-15
1.65666256669e-15
2.45014063839e-16
1.35957684451e-17
3.90680506199e-19
7.1880481208e-21
1.18971099719e-22
3.23891436184e-24
1.75675043075e-25
1.02794376331e-26
5.33355796993e-28
2.41357143328e-29
8.3120835713e-31
1.1809110649e-32
1.17683799623e-10
2.94984470084e-08
4.6738641012e-05
6.56634704635e-11
2.89008761856e-13
2.47606244386e-14
3.0555893559e-15
1.21468981032e-15
3.70988678355e-16
3.10956830075e-17
1.18237533474e-18
2.6705081678e-20
7.22988216631e-22
9.47189350234e-24
4.27998774491e-25
2.52398757814e-26
1.35152273377e-27
6.23522055581e-29
2.12228127217e-30
2.82916844279e-32
1.46905626437e-10
1.70881003906e-08
1.09124347634e-06
2.35487184689e-05
7.6730866234e-12
3.61143390359e-13
1.35786195084e-14
1.58741974531e-15
5.58919914627e-16
6.57568614432e-17
3.15314585219e-18
8.6475721875e-20
3.35258474969e-21
2.91460248845e-23
1.01931814185e-24
5.84040631641e-26
3.22445313588e-27
1.52218053469e-28
5.14533398781e-30
6.50252911014e-32
1.80348833783e-10
1.23858576105e-08
1.58238791122e-07
0.00015982188104
2.49611511566e-11
4.45147204985e-13
2.55449449527e-14
1.84632684549e-15
7.78744573763e-16
1.17993524029e-16
7.40946930874e-18
2.4844680622e-19
5.19090913058e-21
9.24411357076e-23
2.45607757925e-24
1.28551808997e-25
7.2692134588e-27
3.52238628568e-28
1.18827679703e-29
1.43892216467e-31
2.17484171523e-10
8.7552659179e-09
6.00483917914e-08
0.000114050552641
1.16565068743e-11
2.19279034759e-13
2.2586740398e-14
1.64078389381e-15
8.24652697125e-16
1.97920871121e-16
1.53256023844e-17
6.33686513706e-19
1.57713341911e-20
3.12690178978e-22
6.17516962074e-24
2.73208192727e-25
1.5561634394e-26
7.75342366117e-28
2.62242834465e-29
3.07510517806e-31
2.68873265223e-10
6.51340841987e-09
3.67526921145e-08
7.01185757442e-05
1.93340898177e-11
7.7310839023e-14
1.03658680024e-14
1.18383586187e-15
7.49607453227e-16
2.49350392886e-16
2.76666522294e-17
1.44237700839e-18
4.32047981994e-20
1.22916093895e-21
1.63426765394e-23
5.73086549709e-25
3.18359230642e-26
1.62961060892e-27
5.54826318195e-29
6.3639972717e-31
3.50749006072e-10
5.63033847399e-09
3.07639704178e-08
5.07499899058e-05
1.14978659935e-10
1.1454444169e-13
9.31126896985e-15
1.04981246613e-15
4.10244719873e-16
2.78017910479e-16
4.46867468555e-17
3.03435059669e-18
1.08426705199e-19
3.94993467816e-21
4.46884585591e-23
1.22099728307e-24
6.27931067992e-26
3.28412576586e-27
1.12894115345e-28
1.27853255906e-30
4.81939908667e-10
5.2534279863e-09
2.73489809089e-08
1.72045057906e-05
3.71326471967e-05
5.82542749774e-12
3.26693382527e-13
1.28321014814e-14
7.80823343893e-16
4.04312557976e-16
7.4346064886e-17
6.05575518286e-18
2.56600425729e-19
6.54707430678e-21
1.23806746601e-22
2.72059840884e-24
1.2099609274e-25
6.37745482785e-27
2.21670477668e-28
2.49933137413e-30
6.46306503971e-10
4.70328059241e-09
2.17569577679e-08
3.15480293867e-06
0.000192992777228
1.34934409217e-11
2.8531852881e-13
2.22383426248e-14
8.32655859531e-16
4.88096102535e-16
1.17183343442e-16
1.14527452172e-17
5.76179362319e-19
1.68978800519e-20
3.39293708897e-22
6.43725674688e-24
2.32059494777e-25
1.20039346726e-26
4.21486145438e-28
4.7649181818e-30
8.00498110711e-10
3.94165489375e-09
1.57710031593e-08
8.2282507875e-07
0.000102271879446
1.60752988495e-11
8.06252728735e-14
1.03644597804e-14
7.91868946921e-16
4.66933192077e-16
1.61202333108e-16
2.05178450242e-17
1.21267347658e-18
4.1146823613e-20
9.82585284078e-22
1.60404454827e-23
4.5337305442e-25
2.2050823682e-26
7.78658548702e-28
8.87735489336e-30
9.24604007987e-10
3.30600432729e-09
1.19542807834e-08
3.47562797769e-07
6.56469878132e-05
1.48409377244e-10
4.22083018136e-14
4.32693853823e-15
5.63903323315e-16
4.08303371403e-16
1.84183804329e-16
3.34022874177e-17
2.38139623976e-18
9.44622214011e-20
2.79361224911e-21
4.10154368706e-23
9.23810469079e-25
3.98674662957e-26
1.40184096496e-27
1.61872183092e-29
1.01676409786e-09
2.86793119411e-09
9.85096279369e-09
1.96355302476e-07
4.68851267936e-05
1.1792628729e-05
4.62788408462e-12
1.61720477498e-13
4.99541292605e-15
3.5621733774e-16
2.23697378709e-16
5.31975519435e-17
4.61608698684e-18
2.06583387987e-19
6.96893153845e-21
1.05397467938e-22
1.99527903895e-24
7.17694485412e-26
2.46654717897e-27
2.89180787015e-29
1.08785220864e-09
2.61175997629e-09
8.87916828236e-09
1.32538912804e-07
2.41352317937e-05
5.91884608871e-05
1.16250033542e-11
3.72852925072e-13
1.47334886754e-14
4.89137148163e-16
2.73940906483e-16
7.47052263437e-17
8.40099703796e-18
4.31401073953e-19
1.32304055057e-20
2.67334075544e-22
4.57066821442e-24
1.30748985414e-25
4.25597438383e-27
5.06523061804e-29
1.14768932838e-09
2.48866124595e-09
8.55274307033e-09
1.00202649529e-07
1.04388486189e-05
0.000196982351637
2.55064727593e-11
2.60172335207e-13
1.35704264682e-14
4.34401468385e-16
2.97391101152e-16
1.03229819707e-16
1.34727354077e-17
8.53228628572e-19
2.990516822e-20
6.60931902952e-22
1.09370115349e-23
2.46044783993e-25
7.23802690777e-27
8.70608193706e-29
1.19060401631e-09
2.4230417812e-09
8.3737191066e-09
8.01942273246e-08
5.27869821789e-06
0.000211580085952
2.24747044718e-10
5.83757827047e-14
5.66327936245e-15
3.39775639105e-16
2.67201262925e-16
1.17404659169e-16
2.00678363145e-17
1.58767967053e-18
6.46264750968e-20
1.6101780557e-21
2.67389865433e-23
4.8793385628e-25
1.22337724484e-26
1.47050410665e-28
1.21152636126e-09
2.38508073599e-09
8.24910244786e-09
6.75351128998e-08
3.18275190038e-06
8.85858443565e-05
1.22049557368e-08
4.65058184873e-14
2.15025245272e-15
3.6661888144e-16
2.01208729846e-16
1.20388265359e-16
3.07791524445e-17
2.78646517148e-18
1.33300782599e-19
3.84973463092e-21
6.54227991332e-23
1.03063421488e-24
2.08237024047e-26
2.44724054822e-28
1.21677229187e-09
2.38569426176e-09
8.22678354797e-09
5.91102831343e-08
2.05045671915e-06
5.33272606822e-05
1.27804001708e-05
5.49851694781e-12
1.40589046717e-13
3.18524989799e-15
1.92086671082e-16
1.35035231067e-16
4.48322795015e-17
4.72864249228e-18
2.64100443016e-19
8.84345390175e-21
1.58196263089e-22
2.30689643656e-24
3.63699680737e-26
4.03127473315e-28
1.21841327888e-09
2.42968037838e-09
8.28347439587e-09
5.27688936414e-08
1.36371703823e-06
3.56655020124e-05
4.93712577644e-05
1.58330359684e-11
3.8082781252e-13
1.15058398884e-14
2.38648878152e-16
1.64949040132e-16
6.06391058241e-17
8.07180614356e-18
5.03473366965e-19
1.86329338897e-20
3.74361650187e-22
5.37202086702e-24
6.66035969658e-26
6.62486946851e-28
1.2330114431e-09
2.53389050999e-09
8.4850574029e-09
4.87544157815e-08
9.85875892657e-07
2.27202423888e-05
0.000137603511669
8.5279626421e-11
4.40516828698e-13
1.24133790576e-14
2.4560426885e-16
1.58654862207e-16
7.46466845611e-17
1.37024108652e-17
9.19523530425e-19
3.64413512281e-20
8.61288681603e-22
1.2724547404e-23
1.30106215695e-25
1.10109379108e-27
1.27795544501e-09
2.72200091821e-09
8.92126005583e-09
4.72649091009e-08
7.89217219491e-07
1.59701930342e-05
0.000216585679005
2.83063552641e-09
2.8762287096e-13
9.59460427513e-15
4.22779037176e-16
1.65305587096e-16
8.05000597259e-17
1.9672099713e-17
1.59964772392e-18
7.29467471318e-20
1.91945106554e-21
3.00827212873e-23
2.72113553965e-25
1.89188006073e-27
1.36882010554e-09
3.01155816499e-09
9.60581417076e-09
4.77591716127e-08
6.8129973192e-07
1.20250406207e-05
0.000224872084903
2.75040165819e-06
3.64280668383e-12
5.75235187301e-14
8.16276149365e-16
1.44413067837e-16
8.23464996555e-17
2.37333001584e-17
2.64812236106e-18
1.41721996595e-19
4.15027609164e-21
7.00531523838e-23
6.01419889278e-25
3.45340341855e-27
1.51960080982e-09
3.40992115626e-09
1.04997664445e-08
4.94482670947e-08
6.05494203051e-07
8.95712595878e-06
9.36342381739e-05
7.87211334856e-06
1.90085114499e-11
2.0431193217e-13
2.55683554219e-15
2.04187929222e-16
1.01842626791e-16
3.16742777381e-17
4.15293243641e-18
2.64232307169e-19
8.70662729434e-21
1.59175388069e-22
1.37195851335e-24
6.83535176891e-27
1.75537643752e-09
3.95521138215e-09
1.17048970842e-08
5.25964720772e-08
5.56430917123e-07
6.9055683547e-06
5.06125579196e-05
2.62618877644e-05
6.43051091171e-11
5.99222957137e-13
8.30668361712e-15
2.90948149615e-16
1.03570008593e-16
4.22695324991e-17
6.15952464971e-18
4.68090076816e-19
1.75584900804e-20
3.50694851937e-22
3.15438622568e-24
1.4670426947e-26
2.11524387736e-09
4.70374772145e-09
1.33701728224e-08
5.7646726124e-08
5.32237266593e-07
5.59386373466e-06
3.96130823511e-05
6.571164971e-05
3.68963569113e-10
1.28595522011e-12
1.35016992672e-14
2.95909071644e-16
1.10293177032e-16
5.05580757543e-17
8.77934919419e-18
7.88546458942e-19
3.38329661776e-20
7.46965743885e-22
7.18465022237e-24
3.3461000605e-26
2.65161789073e-09
5.72967464967e-09
1.567338212e-08
6.51951183212e-08
5.31700447311e-07
4.80895418324e-06
3.28636800716e-05
0.000113133684299
1.2924568929e-08
2.43689188028e-12
2.25079293664e-14
4.26154148264e-16
1.18005301866e-16
5.44067869469e-17
1.26571669545e-17
1.26649740503e-18
6.1398597684e-20
1.53764644241e-21
1.60496271568e-23
7.8898207586e-26
3.42859322133e-09
7.13035390232e-09
1.88485943343e-08
7.59708843449e-08
5.51738594676e-07
4.33774452839e-06
2.78800923785e-05
0.000153608794277
1.22475306744e-06
1.2176019148e-11
9.13424306423e-14
7.07950666156e-16
1.30541629551e-16
6.0989794118e-17
1.81556511653e-17
1.94011190862e-18
1.07585931571e-19
3.05896805166e-21
3.49620522891e-23
1.8772336766e-25
4.52989733403e-09
9.05198832951e-09
2.32467523728e-08
9.08922161893e-08
5.88456356989e-07
4.02696832695e-06
2.36583886762e-05
0.000182419835395
3.10894662706e-06
4.00951324781e-11
2.59267426429e-13
1.91681931992e-15
1.86775369768e-16
6.23420369947e-17
2.42250463158e-17
2.82058422828e-18
1.83351743476e-19
5.87201710367e-21
7.39454119049e-23
4.42837899548e-25
6.08932506932e-09
1.17416977397e-08
2.94576902058e-08
1.11444503014e-07
6.41735943274e-07
3.82462810521e-06
2.03133240134e-05
0.000190524450061
7.39797279723e-06
1.4287480028e-10
6.94106772803e-13
4.73454961584e-15
1.92755737965e-16
7.35071023968e-17
2.80596028394e-17
3.9539958572e-18
3.00641486849e-19
1.08588072455e-20
1.51358143864e-22
1.02400460397e-24
8.34235726704e-09
1.56228188227e-08
3.84502649466e-08
1.39801782385e-07
7.13874365472e-07
3.71555370475e-06
1.78597671112e-05
0.000171005178401
1.63473796406e-05
6.94513240451e-10
1.86926661631e-12
1.14106534797e-14
2.40654809721e-16
7.92269132985e-17
3.23594070987e-17
5.2632949614e-18
4.84337424682e-19
1.93568557404e-20
2.9954027312e-22
2.30722815132e-24
1.17039928917e-08
2.1410925549e-08
5.17405482541e-08
1.78854232105e-07
8.08055919956e-07
3.69042423723e-06
1.61441564663e-05
0.000124712704996
2.96960617309e-05
9.0523621812e-09
5.19059088636e-12
2.38881048038e-14
3.38450994109e-16
8.11430403483e-17
3.54606399838e-17
6.61868103038e-18
7.50393079477e-19
3.33044759344e-20
5.73487143539e-22
5.05398923827e-24
1.68946018471e-08
3.02956675571e-08
7.15886586708e-08
2.32201863837e-07
9.27735182335e-07
3.74286654161e-06
1.50198448691e-05
7.87736764538e-05
4.40765176539e-05
2.25854732993e-07
2.02540729433e-11
7.79583153033e-14
7.14169957617e-16
9.64650950454e-17
3.55515604173e-17
8.00063646042e-18
1.11763846591e-18
5.52767451394e-20
1.06281240479e-21
1.07541863431e-23
2.51446092985e-08
4.41966114449e-08
1.0117989062e-07
3.04072568373e-07
1.07604343874e-06
3.86465108894e-06
1.43191711438e-05
5.85374284793e-05
5.81202850388e-05
7.16291431006e-07
6.5380585675e-11
2.35606306884e-13
1.27611977725e-15
1.22992781665e-16
3.81495758404e-17
9.42494205754e-18
1.60085708809e-18
8.84471246899e-20
1.90573417047e-21
2.22073827466e-23
3.8495603069e-08
6.60655427139e-08
1.44781262108e-07
3.99258998794e-07
1.25579645653e-06
4.04854102144e-06
1.39239536112e-05
4.98241354039e-05
7.12039665006e-05
1.36360577199e-06
1.93677149434e-10
6.48911397495e-13
2.84709997728e-15
1.62482634333e-16
4.07701742477e-17
1.07596028954e-17
2.20684414672e-18
1.36341303902e-19
3.30347466042e-21
4.4453118981e-23
6.01745332985e-08
1.00176939205e-07
2.07788009193e-07
5.22883584594e-07
1.46995438196e-06
4.29478634351e-06
1.37733118644e-05
4.52444169716e-05
8.23811412487e-05
2.35627520202e-06
4.86892578552e-10
1.9711144373e-12
6.72488759947e-15
2.25845175599e-16
4.25204763184e-17
1.20008329192e-17
2.93363388984e-18
2.02566135995e-19
5.53519819722e-21
8.62114780086e-23
9.49477282432e-08
1.52268685698e-07
2.96489800771e-07
6.79907847653e-07
1.72186161777e-06
4.60947987191e-06
1.38875022215e-05
4.27172012851e-05
9.07652234414e-05
3.67042520243e-06
1.7463186425e-09
4.71717507105e-12
1.82385677183e-14
3.56795447315e-16
5.11878398796e-17
1.32785942466e-17
3.77696785325e-18
2.90655360189e-19
8.97304276905e-21
1.62030925436e-22
1.49254476117e-07
2.2932958496e-07
4.17410151269e-07
8.74644929695e-07
2.01562677007e-06
5.0052566437e-06
1.42693557238e-05
4.16384008105e-05
9.58388869877e-05
5.09140572023e-06
1.01604676253e-08
1.09263465007e-11
5.31375256784e-14
6.84993868878e-16
7.01409732375e-17
1.50340795071e-17
4.74461588253e-18
4.04088176758e-19
1.40938603367e-20
2.95252121407e-22
2.30818973633e-07
3.38793726902e-07
5.76278496965e-07
1.11061171917e-06
2.35736322551e-06
5.5009721515e-06
1.49227019924e-05
4.19315710596e-05
9.76977906061e-05
6.45241687296e-06
4.7535984536e-08
2.60537840327e-11
1.62776034808e-13
1.54590888519e-15
9.80043663399e-17
1.84512094422e-17
5.88777110758e-18
5.46794456435e-19
2.14824257362e-20
5.21663018803e-22
3.47443541795e-07
4.87126722082e-07
7.77201883815e-07
1.39124978924e-06
2.75746816262e-06
6.12319904657e-06
1.58497794591e-05
4.41814239591e-05
9.65670283809e-05
7.60099862031e-06
1.11606687017e-07
5.97897484621e-11
4.4030156554e-13
2.55456998025e-15
1.47279591661e-16
2.40842014695e-17
7.32957534228e-18
7.2450119931e-19
3.1836900023e-20
8.93549116788e-22
5.0515335425e-07
6.78528134928e-07
1.02300937635e-06
1.7224172511e-06
3.23467748568e-06
6.91108760941e-06
1.7061319611e-05
5.10318731988e-05
9.27878285668e-05
8.17138581357e-06
1.78197681549e-07
1.36289042014e-10
1.09468697355e-12
6.56824075468e-15
2.3098735145e-16
3.30479714599e-17
9.26634407446e-18
9.46826219721e-19
4.59945372369e-20
1.48382095473e-21
7.07110951387e-07
9.1550495367e-07
1.31828479791e-06
2.11730836346e-06
3.82287151876e-06
7.92934976264e-06
1.85919485032e-05
7.04892887594e-05
8.66210776123e-05
8.30249898917e-06
2.40097783051e-07
3.22475043382e-10
2.61550719608e-12
1.70689737173e-14
4.08178434646e-16
4.6672803857e-17
1.19228989074e-17
1.22899880831e-18
6.4980601812e-20
2.39001770646e-21
9.56005191949e-07
1.20325423033e-06
1.67517156401e-06
2.60308666849e-06
4.57574584755e-06
9.25766075903e-06
2.0381078338e-05
0.000106136482965
7.7660259707e-05
8.05952881346e-06
2.96680409059e-07
7.80091804513e-10
6.02207953543e-12
4.29288876259e-14
8.13747025262e-16
6.71434126988e-17
1.54520862352e-17
1.59204907349e-18
9.00621063298e-20
3.73813409676e-21
1.26132647304e-06
1.55739221924e-06
2.12058943799e-06
3.2257255596e-06
5.56568952649e-06
1.09605373229e-05
2.23191459568e-05
0.000127721706136
6.71814126806e-05
7.48799728084e-06
3.43198497152e-07
1.83083614606e-09
1.34989218164e-11
1.13298241335e-13
9.58782619676e-16
9.11362442968e-17
1.96347517124e-17
2.05825780248e-18
1.22757493975e-19
5.68783341502e-21
1.64841296735e-06
2.01173696842e-06
2.70232582312e-06
4.05416787784e-06
6.88274828565e-06
1.30685906547e-05
2.44453826799e-05
0.000133119260574
5.60731667375e-05
6.65804610124e-06
3.7293655996e-07
3.76503786101e-09
2.9332528858e-11
2.75101466409e-13
2.37074048124e-15
1.37535507327e-16
2.39026135781e-17
2.6516132462e-18
1.64826761149e-19
8.44233648396e-21
2.16504085068e-06
2.62399592841e-06
3.49398263276e-06
5.18363209892e-06
8.62907275903e-06
1.55564399995e-05
2.74921633901e-05
0.000126547356851
4.50207932993e-05
5.67400259365e-06
3.82183698666e-07
6.61575535857e-09
5.90236667388e-11
6.66718445036e-13
5.71795839946e-15
2.39027493622e-16
2.96354228145e-17
3.40059681469e-18
2.18295923017e-19
1.22736069213e-20
2.88680318084e-06
3.48142756074e-06
4.60071373217e-06
6.73768461048e-06
1.0896956902e-05
1.83292858216e-05
4.15672849371e-05
0.000110884147684
3.46161157213e-05
4.63635441851e-06
3.70527713927e-07
9.94413681652e-09
1.0817101654e-10
1.58419014946e-12
1.38708162494e-14
4.19754920803e-16
4.04020235698e-17
4.35626850495e-18
2.85907837967e-19
1.75819255842e-20
3.92634538383e-06
4.7115990241e-06
6.17016027636e-06
8.86797769312e-06
1.37081776318e-05
2.13346069884e-05
0.000103621324338
8.94097342326e-05
2.54111265807e-05
3.6405593185e-06
3.4109013539e-07
1.29733325836e-08
1.78662338839e-10
3.66476163881e-12
3.36912416122e-14
7.80413825333e-16
5.51799535958e-17
5.58223685041e-18
3.71773390651e-19
2.5019287358e-20
5.44001392174e-06
6.48196527539e-06
8.36763147998e-06
1.16530385869e-05
1.69017214317e-05
2.72216617223e-05
0.000115875720913
6.63059317242e-05
1.77510469809e-05
2.75262992311e-06
2.99186155737e-07
1.50713248482e-08
2.70690227748e-10
7.75798586867e-12
7.92120165933e-14
1.49028357163e-15
7.73763866783e-17
7.15843314462e-18
4.82477456607e-19
3.57243096698e-20
7.62866391538e-06
8.9820667623e-06
1.13074965121e-05
1.49894751039e-05
2.07104736167e-05
8.8250304895e-05
9.90480712176e-05
4.53946565233e-05
1.17946150122e-05
2.00820176719e-06
2.50692971188e-07
1.59752577113e-08
3.81555232153e-10
1.45446700729e-11
1.97734780701e-13
2.97357535984e-15
1.13740370619e-16
9.21106497333e-18
6.29307771957e-19
5.1747406512e-20
1.06650249884e-05
1.22914089813e-05
1.48939297668e-05
1.90375788342e-05
5.22244122641e-05
0.000104632502987
7.10439469841e-05
2.86397724758e-05
7.45177662354e-06
1.41136191518e-06
2.00636473498e-07
1.57375823909e-08
5.03387711222e-10
2.42471696514e-11
4.58777233546e-13
4.86628979987e-15
1.7516152949e-16
1.18942710091e-17
8.30456757528e-19
7.72354965568e-20
1.44670645947e-05
1.63161006854e-05
2.01323129342e-05
5.54251031042e-05
9.70098272719e-05
8.14907008542e-05
4.48565142148e-05
1.70655252913e-05
4.63481309973e-06
9.91238534469e-07
1.61666688024e-07
1.5726584877e-08
6.70520660473e-10
3.91126955675e-11
1.03580643368e-12
1.07730123664e-14
2.73467727271e-16
1.50967544267e-17
1.10262135726e-18
1.20318957605e-19
3.86657244324e-39
1.31486560371e-40
1.7555508624e-38
5.04455730266e-38
9.1545951094e-38
7.8708238613e-39
3.83558193365e-37
3.01298494348e-38
1.32949335911e-36
8.88582486124e-38
4.06122559734e-36
2.30603036763e-37
1.13485721225e-35
5.5022308926e-37
2.95696411413e-35
1.23060247481e-36
7.28719856442e-35
2.61367536417e-36
1.71994840164e-34
5.32708219226e-36
3.92364701157e-34
1.08089937367e-35
8.69876525138e-34
5.88429330879e-34
1.87970821952e-33
4.50455984472e-35
3.96603276085e-33
9.38257513746e-35
8.18192026152e-33
1.922497305e-34
1.6523367224e-32
3.87523926608e-34
3.27005976827e-32
7.68622163961e-34
6.34908916742e-32
1.50059819204e-33
1.21077842344e-31
2.88525746609e-33
2.26965438329e-31
5.46960580825e-33
4.18438289773e-31
1.02119112743e-32
7.58943547377e-31
1.87575380365e-32
1.35436068934e-30
3.39248321397e-32
2.37862881439e-30
6.05558645934e-32
4.1153004475e-30
1.07348326946e-31
7.02847001686e-30
1.91847756664e-31
1.19119413912e-29
3.55183811224e-31
2.02465871425e-29
7.14441339292e-31
3.52113999943e-29
1.64406272691e-30
6.47204767828e-29
4.39505663469e-30
1.3046734445e-28
1.31318204512e-29
2.93922491022e-28
4.13589171968e-29
7.28515745739e-28
1.31362094273e-28
1.91340873617e-27
4.10641500759e-28
5.13565314476e-27
1.24937398126e-27
1.37420010675e-26
3.68263899573e-27
3.61252025142e-26
1.04952705882e-26
9.25420080977e-26
2.88891146498e-26
2.30121153876e-25
7.67785635318e-26
5.54814385937e-25
1.97096585928e-25
1.2966718929e-24
4.88994195595e-25
2.93650685866e-24
1.17267862284e-24
6.43921805999e-24
2.71729761616e-24
1.36645039389e-23
6.0804347901e-24
2.80558458778e-23
1.31327326377e-23
5.57221964282e-23
2.73624292624e-23
1.069908076e-22
5.4948758792e-23
1.9842288492e-22
1.06243141196e-22
3.55167974859e-22
1.97602715201e-22
6.13504909778e-22
3.53478284884e-22
1.02348380892e-21
6.08690078883e-22
1.65242596452e-21
1.01144090144e-21
2.59120676198e-21
1.62858073925e-21
3.96952231588e-21
2.55828261515e-21
5.98893976133e-21
3.95693364141e-21
8.98413857029e-21
6.0857526319e-21
1.35604977239e-20
9.42557675298e-21
2.08082476516e-20
1.48328556458e-20
3.29176979826e-20
2.39149578284e-20
5.91846414025e-20
4.67729494714e-20
)
;

boundaryField
{
    inletfuel
    {
        type            calculated;
        value           uniform 0;
    }
    inletair
    {