/*--------------------------------*- C++ -*----------------------------------*\
  =========                 |
  \\      /  F ield         | OpenFOAM: The Open Source CFD Toolbox
   \\    /   O peration     | Website:  https://openfoam.org
    \\  /    A nd           | Version:  dev
     \\/     M anipulation  |
\*---------------------------------------------------------------------------*/
FoamFile
{
    version     2.0;
    format      ascii;
    class       volScalarField;
    location    "0.3";
    object      edc::YStar_N2;
}
// * * * * * * * * * * * * * * * * * * * * * * * * * * * * * * * * * * * * * //

dimensions      [0 0 0 0 0 0 0];

internalField   nonuniform List<scalar> 
1629
(
4.87483209355e-09
5.02789621049e-09
4.59889415438e-09
6.26662484349e-07
9.89695116194e-07
1.98754754199e-06
4.09261159259e-05
0.000108878766502
0.000484544427724
0.00177204727498
0.00811888594114
0.077804183188
0.00645972303633
0.0239896179553
0.138930501062
0.0155405903464
0.0484544815115
0.192846430305
0.0308177909108
0.0806450539924
0.234833311078
0.0538160182281
0.117164544794
0.264547694295
0.0846668250901
0.153969937901
0.285022999842
0.121722530562
0.188879347672
0.300805689915
0.161939637808
0.221298527926
0.314978796242
0.202067605412
0.251291859499
0.328795506871
0.239697292274
0.27894443702
0.342448940456
0.273593832398
0.304276493714
0.35590969627
0.303432210592
0.327286825519
0.36909406164
0.329415870811
0.348038348238
0.381909385354
0.352014343263
0.366699796615
0.394270059057
0.371779685049
0.383517079409
0.406132968437
0.389238968973
0.398760675983
0.417492217794
0.404839402957
0.412679040609
0.428357680227
0.418936661408
0.425479738378
0.438737504467
0.431816302273
0.437341785716
0.448654171625
0.443722888455
0.448438487981
0.458173425691
0.454857754103
0.458921734082
0.46736969451
0.465371256328
0.468903372636
0.476288956488
0.475374632864
0.478464505519
0.484957376541
0.484961257356
0.487678065289
0.493410956845
0.494209155874
0.496607992618
0.501688550581
0.503174553411
0.505299983687
0.509816556387
0.511888634537
0.513776284632
0.517799979107
0.52036733861
0.522045754848
0.52563361562
0.528627634167
0.530121493367
0.533323225708
0.536686494845
0.538017994865
0.540878850542
0.544552435703
0.545741003274
0.548300729792
0.552227754769
0.553289847272
0.555582042272
0.559717851194
0.560667760829
0.562721707727
0.567031176556
0.567881651768
0.569723725583
0.574173649768
0.574936111385
0.576590120995
0.581145032256
0.581829548208
0.583316577115
0.587941926269
0.588557273367
0.589895747686
0.594563475879
0.595117443752
0.596323773585
0.601012472045
0.601512055204
0.602601054703
0.607294024728
0.607745488416
0.608730481477
0.61341407439
0.613822954878
0.614715750597
0.619378877903
0.619749996883
0.620560906223
0.625195563681
0.625533124712
0.626271159415
0.63087227944
0.631179978053
0.631853082272
0.636417895862
0.63669899135
0.63731418732
0.641841921002
0.642099277434
0.642662745968
0.647154624445
0.647390736729
0.647907869194
0.652366869058
0.6525838867
0.653059333778
0.657489424699
0.657689177763
0.658126904147
0.662531981818
0.662716014503
0.663119371032
0.667502358382
0.667671976232
0.668043801531
0.672405931953
0.672562248297
0.67290496783
0.677245889206
0.677389869853
0.677705590988
0.682025146215
0.682157662343
0.682448287795
0.686749685701
0.6868715667
0.687138909218
0.691432010311
0.691544079558
0.69178993867
0.696090454749
0.69619347747
0.696419523782
0.700746985751
0.700841611206
0.701049260011
0.705424559238
0.705511284601
0.705701617547
0.710045447835
0.710124675613
0.710298567867
0.556419611611
0.499635885339
0.453070420723
0.427315640171
0.413986673513
0.405673653964
0.401432434975
0.400709899269
0.402297551696
0.405174125733
0.409030327221
0.413833350422
0.419534596178
0.425951416027
0.432893271011
0.440203132978
0.447751172126
0.455408475895
0.463072257488
0.470720046227
0.478359928027
0.48597391601
0.493529725078
0.501024321958
0.508470070136
0.515872883485
0.523218353927
0.53048442836
0.537668404642
0.544775332473
0.551798774991
0.55872417381
0.565545204137
0.5722624701
0.57887501706
0.585375224537
0.591752381339
0.598000082507
0.60411673224
0.610103343865
0.615961673815
0.621693813103
0.627303267686
0.632795202161
0.638175904646
0.643452520492
0.648633096631
0.653726406139
0.6587412816
0.663685680762
0.668565977638
0.673386384182
0.678149187746
0.682856725161
0.687514723959
0.692135648515
0.696737446053
0.701341390396
0.70596943812
0.710543272658
0.76799998046
0.767999972356
0.767999984034
0.767999993872
0.767999998225
0.767999999586
0.76799999992
0.767999999987
0.767999999998
0.768
0.768
0.768
0.768
0.768
0.768
0.768
0.768
0.768
0.768
0.768
0.767996998086
0.767998890486
0.767999650987
0.767999908626
0.767999980221
0.767999996363
0.767999999419
0.767999999918
0.76799999999
0.767999999999
0.768
0.768
0.768
0.768
0.768
0.768
0.768
0.768
0.768
0.768
0.767687975626
0.767973180153
0.767996078783
0.767999325027
0.767999887428
0.76799998272
0.767999997574
0.767999999689
0.767999999963
0.767999999996
0.768
0.768
0.768
0.768
0.768
0.768
0.768
0.768
0.768
0.768
0.745823074413
0.767441454551
0.76797048534
0.767996594275
0.767999503879
0.767999927964
0.767999990187
0.767999998754
0.767999999853
0.767999999984
0.767999999999
0.768
0.768
0.768
0.768
0.768
0.768
0.768
0.768
0.768
0.723456317902
0.766569893398
0.767927865681
0.767990965461
0.767998475211
0.767999749271
0.767999962878
0.767999994992
0.767999999393
0.767999999934
0.767999999994
0.767999999999
0.768
0.768
0.768
0.768
0.768
0.768
0.768
0.768
0.692089694854
0.763580038699
0.767806410157
0.767974242483
0.767995126524
0.767999100948
0.767999855092
0.767999979633
0.767999997483
0.767999999726
0.767999999974
0.767999999998
0.768
0.768
0.768
0.768
0.768
0.768
0.768
0.768
0.658911990463
0.755394730065
0.766551782745
0.767822234974
0.76797667895
0.767996326952
0.767999427181
0.767999919938
0.76799999009
0.767999998913
0.767999999895
0.767999999991
0.767999999999
0.768
0.768
0.768
0.768
0.768
0.768
0.768
0.623057628407
0.73884436747
0.76303978312
0.767294262388
0.767915570715
0.767988336561
0.767998194621
0.767999738088
0.767999966333
0.767999996184
0.767999999619
0.767999999966
0.767999999997
0.768
0.768
0.768
0.768
0.768
0.768
0.768
0.58855693665
0.714994114346
0.761425676972
0.767044212674
0.76785986042
0.767977408839
0.767996024435
0.767999345911
0.767999906803
0.767999988562
0.767999998783
0.767999999887
0.767999999991
0.767999999999
0.768
0.768
0.768
0.768
0.768
0.768
0.561822879853
0.697670087779
0.758658238461
0.766921429729
0.767811893995
0.767963985969
0.767992705042
0.767998624475
0.767999778711
0.767999969994
0.76799999654
0.767999999658
0.767999999971
0.767999999998
0.768
0.768
0.768
0.768
0.768
0.768
0.542110661473
0.681456127774
0.753350581032
0.76608435219
0.767646208474
0.767932944875
0.767986177903
0.767997209153
0.767999508928
0.767999927339
0.76799999094
0.76799999904
0.767999999913
0.767999999993
0.768
0.768
0.768
0.768
0.768
0.768
0.526644199812
0.659878723943
0.742265446657
0.763486684283
0.767144210274
0.767848928464
0.76797134668
0.767994254893
0.767998939423
0.767999832459
0.767999977655
0.767999997475
0.767999999757
0.76799999998
0.767999999999
0.768
0.768
0.768
0.768
0.768
0.513823829418
0.632360508783
0.720884555959
0.760463254341
0.766556174007
0.767727717268
0.767947016521
0.767989054405
0.767997857055
0.767999637256
0.767999948207
0.76799999376
0.767999999362
0.767999999944
0.767999999996
0.768
0.768
0.768
0.768
0.768
0.503192744582
0.607071250709
0.696029919141
0.756838031532
0.765962661938
0.767583107693
0.767913181305
0.767981026214
0.767996011766
0.767999270221
0.767999887775
0.767999985527
0.767999998426
0.767999999855
0.767999999989
0.767999999999
0.768
0.768
0.768
0.768
0.495056822191
0.587802432478
0.681170805656
0.751438937929
0.764724713662
0.767294474477
0.767852873223
0.767967664386
0.767992905088
0.767998612335
0.767999770861
0.767999968362
0.767999996336
0.767999999642
0.76799999997
0.767999999998
0.768
0.768
0.768
0.768
0.489554215202
0.57382546598
0.669292480906
0.742488639414
0.762550404861
0.766783904778
0.767747308965
0.767945433695
0.767987797237
0.767997482618
0.767999556122
0.767999934499
0.767999991918
0.767999999163
0.767999999927
0.767999999995
0.768
0.768
0.768
0.768
0.486315916874
0.562945760718
0.65157354165
0.727011447426
0.760166044626
0.76626232709
0.767622484388
0.767915765291
0.767980393089
0.767995702592
0.767999187696
0.767999871566
0.767999983086
0.76799999814
0.767999999829
0.767999999987
0.767999999999
0.768
0.768
0.768
0.4849504863
0.554289051321
0.633716478214
0.708760853714
0.757217827992
0.76575039597
0.767490784109
0.767880082237
0.767970510616
0.767993087783
0.767998593154
0.767999760875
0.767999966311
0.76799999606
0.767999999616
0.767999999969
0.767999999998
0.768
0.768
0.768
0.485161447982
0.547730681349
0.618826924196
0.693898815669
0.752590913028
0.764966353398
0.767295030014
0.767828590777
0.767956337839
0.767989204021
0.767997651036
0.767999572156
0.767999935599
0.767999991992
0.767999999176
0.76799999993
0.767999999995
0.768
0.768
0.768
0.486714441262
0.543322901111
0.608476800082
0.684211029923
0.746287959324
0.763192079816
0.76684269256
0.76772599347
0.767931992986
0.767982953901
0.767996121814
0.76799925199
0.767999880484
0.767999984252
0.767999998289
0.767999999847
0.767999999989
0.767999999999
0.768
0.768
0.489337434042
0.540715639034
0.601119497879
0.675135711165
0.737104619237
0.760381900291
0.766081635032
0.767547245971
0.767891204157
0.767972891179
0.767993647779
0.767998715025
0.767999783396
0.767999969875
0.767999996552
0.767999999676
0.767999999975
0.767999999998
0.768
0.768
0.492747670576
0.539345674393
0.594896920839
0.662014570014
0.723495752215
0.757493614011
0.765335161653
0.767341579174
0.767837632578
0.767958641934
0.767989920901
0.767997854175
0.767999618067
0.767999943949
0.767999993246
0.767999999333
0.767999999946
0.767999999997
0.768
0.768
0.496789730812
0.539038663852
0.58984781533
0.649866117267
0.709560756761
0.753926262676
0.764541553335
0.767106437908
0.767770297656
0.76793948979
0.767984580995
0.767996532808
0.767999346761
0.767999898691
0.767999987136
0.767999998666
0.767999999887
0.767999999992
0.768
0.768
0.501378519989
0.539775003996
0.58642214281
0.641444985787
0.700828762691
0.748959063325
0.763081600731
0.766687598162
0.767661357209
0.767910766343
0.76797670026
0.767994518409
0.767998910839
0.767999821712
0.767999976147
0.767999997401
0.76799999977
0.767999999984
0.767999999999
0.768
0.506399225641
0.541374953528
0.584352137826
0.63534494973
0.693800578185
0.742122074573
0.760864530543
0.766028591628
0.767489169633
0.767867182512
0.767965040744
0.767991482919
0.767998224281
0.767999693887
0.76799995688
0.767999995062
0.767999999543
0.767999999967
0.767999999998
0.768
0.51171848286
0.54356891687
0.58306257385
0.629903581224
0.684217539902
0.732456764336
0.758452624929
0.765332183611
0.767287888276
0.767811844484
0.767949416569
0.767987180766
0.767997188905
0.767999488832
0.767999924098
0.767999990855
0.767999999111
0.767999999932
0.767999999997
0.768
0.517263321116
0.546249031046
0.582455740612
0.625344245495
0.674621830976
0.721732747372
0.755499628298
0.764593178768
0.767071012449
0.767747545813
0.76792993802
0.767981425402
0.767995698313
0.767999172165
0.767999870096
0.767999983501
0.767999998314
0.767999999865
0.767999999993
0.768
0.522999636723
0.549379561375
0.58255208155
0.62182348224
0.666574114661
0.712501357631
0.751521275373
0.763626599613
0.766789433669
0.767664054993
0.767904559821
0.76797369805
0.767993585374
0.767998694182
0.767999783338
0.767999970964
0.767999996878
0.767999999738
0.767999999985
0.768
0.528900208781
0.552934213235
0.583389577554
0.619593056751
0.661189280756
0.706514695117
0.746501023804
0.761987435205
0.766303552217
0.767531025081
0.767867451943
0.767962788022
0.767990550205
0.767997976633
0.767999645982
0.767999949994
0.767999994342
0.767999999503
0.767999999971
0.767999999999
0.534917473152
0.556830765274
0.58484243893
0.618374561149
0.657303555583
0.701369298897
0.740335209233
0.75971404622
0.765590335256
0.767332641201
0.767813778363
0.767947399915
0.767986216268
0.767996911891
0.767999431887
0.76799991555
0.767999989953
0.767999999075
0.767999999944
0.767999999998
0.540996742776
0.560961644488
0.586699781927
0.617686320848
0.653737183902
0.694743574724
0.732770977863
0.757251036276
0.764824049726
0.767099990427
0.767746490642
0.767927344493
0.767980319269
0.767995384599
0.767999107081
0.767999860305
0.767999982522
0.767999998312
0.767999999892
0.767999999996
0.547118274402
0.56529929264
0.588931057032
0.617523900395
0.650814929733
0.688466000975
0.725213961288
0.754304750912
0.763953433519
0.766828404785
0.767664522756
0.767902101233
0.767972572112
0.767993263539
0.767998628402
0.767999773995
0.767999970245
0.767999996985
0.767999999799
0.767999999992
0.553277574074
0.569842026797
0.591553128861
0.617967154544
0.648802069191
0.683742480034
0.719489872595
0.750646855985
0.762720519633
0.766442195485
0.7675518541
0.767868592296
0.767962280434
0.767990345309
0.767997935589
0.767999642017
0.767999950412
0.767999994726
0.767999999632
0.767999999984
0.559455624142
0.574553518043
0.594510459303
0.618940917217
0.64758824555
0.680242105049
0.714936572218
0.746161882351
0.761069483083
0.765908491156
0.767396308641
0.767823607231
0.767948602857
0.767986370338
0.767996948892
0.767999444083
0.767999919044
0.767999990966
0.767999999339
0.767999999969
0.565622445454
0.579375740031
0.597703796171
0.620273909411
0.646834745435
0.67712238324
0.710319502878
0.740925821008
0.759164887951
0.765287981858
0.767207644189
0.767767734325
0.767931278932
0.767981142004
0.767995583272
0.767999154649
0.76799987059
0.767999984847
0.767999998839
0.767999999942
0.57176116958
0.584280391578
0.601095443166
0.621924990022
0.646531369999
0.674664897953
0.705830112737
0.735502694111
0.7569051476
0.764573968337
0.76698857851
0.767701475621
0.767910213268
0.767974508312
0.767993752107
0.767998743146
0.767999797636
0.767999975127
0.767999998004
0.767999999895
0.577865769862
0.589258757297
0.604679690466
0.623898841697
0.646699382445
0.672846326602
0.70191538815
0.730497254051
0.754242975329
0.763698609759
0.76671845217
0.767620079439
0.767884374567
0.767966167
0.767991339073
0.767998170076
0.767999690166
0.767999960026
0.767999996639
0.767999999811
0.583929833341
0.594300735024
0.608446348893
0.626189438605
0.64734285093
0.671698636557
0.698911843682
0.726538612667
0.751132086124
0.762542150309
0.766354531147
0.767513020643
0.767851499653
0.767955567612
0.767988173541
0.767997381689
0.767999534402
0.767999936991
0.767999994451
0.767999999669
0.589939457279
0.599383530524
0.61236286844
0.628751686142
0.648397324431
0.671123395903
0.696654195512
0.723307716612
0.747628232514
0.761083840488
0.765876386294
0.767372597508
0.767809541557
0.767942145641
0.767984062017
0.767996311966
0.767999312245
0.76799990247
0.767999991006
0.767999999428
0.595877098376
0.604478316898
0.616385709494
0.631519984577
0.649758805719
0.670940891266
0.694789355533
0.720311678423
0.743942800471
0.759386844706
0.765299620665
0.767199620371
0.76775802994
0.767925621262
0.767978849479
0.767994892143
0.767999001885
0.767999851761
0.76799998569
0.767999999031
0.601731135768
0.609566649897
0.620489252768
0.634460442869
0.651384458373
0.671111022402
0.693372694202
0.717567481095
0.740391329956
0.757432177799
0.764611693677
0.766990965549
0.767696176785
0.767905747052
0.767972398463
0.767993051213
0.767998577853
0.767999778851
0.767999977655
0.767999998387
0.607495924937
0.614638415135
0.624659941124
0.637557439601
0.653259816158
0.671630284485
0.692425510624
0.715200108079
0.737206371971
0.755234769631
0.76377777692
0.766733965805
0.767620924468
0.767881857578
0.767964502436
0.767990702084
0.767998008862
0.767999675991
0.767999965737
0.767999997364
0.613168715876
0.619686048244
0.628886183143
0.640796529142
0.655369330142
0.672483408518
0.691920596441
0.713334214223
0.734513778914
0.752882365922
0.762755269941
0.766407194461
0.767526610155
0.767852730249
0.767954845285
0.767987731266
0.767997255267
0.767999533084
0.767999948348
0.767999995761
0.618747331904
0.624701450806
0.633154118299
0.644158658613
0.657689536444
0.673643496692
0.691831266137
0.711993857449
0.732387685785
0.750420479077
0.761522607563
0.765990124423
0.767406780697
0.767816909273
0.767943062811
0.767984008637
0.767996269603
0.767999337376
0.767999923355
0.767999993291
0.624229813919
0.629676048533
0.637448019536
0.647620461459
0.660188000989
0.675065092106
0.69208855604
0.711052431006
0.730582199123
0.748025266308
0.760109220678
0.765474130863
0.767256638464
0.767773183411
0.76792884748
0.767979410728
0.767995000419
0.76799907368
0.767999888013
0.767999989542
0.629616092344
0.634603972331
0.641755730387
0.651163023668
0.662837636267
0.676709611931
0.692636440215
0.710439343697
0.729041941189
0.745836392253
0.758552603489
0.764850107358
0.767070666978
0.767720230874
0.767911908874
0.767973822634
0.767993394063
0.767998724576
0.767999838898
0.767999983947
0.634908360173
0.639482651297
0.646069578304
0.654773407888
0.665619810866
0.678552349049
0.693446118108
0.710141131629
0.727790017553
0.743932801838
0.756906257672
0.764103453015
0.766839360204
0.767655780924
0.767891806139
0.767967110341
0.767991390898
0.767998269833
0.76799977176
0.767999975726
0.640110306441
0.644311423969
0.650384103008
0.658441256482
0.668519452899
0.68057454745
0.694498721853
0.71014989431
0.726850033007
0.742343741426
0.755247389521
0.763222707857
0.766548911916
0.767576154572
0.767867831427
0.767959097098
0.767988920792
0.767997685481
0.767999681291
0.767999963828
0.645226672933
0.649090792338
0.654694989712
0.662157407304
0.671523154431
0.682760080527
0.6957783732
0.710455824116
0.726234829606
0.741097665087
0.753631249312
0.762209081592
0.766183517799
0.767476314839
0.767839003368
0.767949564751
0.767985903605
0.767996943645
0.767999560964
0.767999946846
0.65026321806
0.653822343828
0.658998978139
0.665913702401
0.674618424366
0.685093018762
0.69726625667
0.711035970408
0.72590806796
0.740103154725
0.752156850419
0.7610916202
0.765729657119
0.767350103314
0.767804087821
0.767938264785
0.767982253365
0.76799601337
0.767999403041
0.767999922962
0.655226542375
0.658508648113
0.663293871585
0.669703044076
0.67779351785
0.687556835342
0.698939115082
0.711853369647
0.725843089496
0.739332030261
0.750875302931
0.759923240256
0.765178380143
0.767189799493
0.767761456406
0.767924899303
0.767977878573
0.767994861276
0.767999198649
0.767999889895
0.660123457042
0.663152739152
0.667578248538
0.67351950208
0.681038323991
0.690137365734
0.700778423905
0.712885531492
0.726027854576
0.738790097721
0.749824036133
0.758754204571
0.764526395396
0.766985304904
0.767708765701
0.767909063744
0.767972675771
0.767993451299
0.767998937812
0.767999844863
0.664960118074
0.667757412754
0.671851033741
0.677358270226
0.684344867095
0.692824101313
0.702771772796
0.714116036101
0.726448351508
0.738481395844
0.749009300471
0.757631684055
0.763781135012
0.766724549015
0.767642641824
0.767890183745
0.767966522492
0.767991744435
0.767998609509
0.767999784542
0.669741407876
0.672324776634
0.676111190936
0.681215301278
0.687706385645
0.695607482615
0.704905651633
0.715523669386
0.72706950965
0.738377712071
0.748375078573
0.75662217529
0.76296772091
0.766394853023
0.767558154947
0.767867412046
0.767959266407
0.767989698563
0.76799820178
0.767999705014
0.674470330505
0.67685553521
0.680356699392
0.68508564195
0.6911145918
0.698474692917
0.707160409975
0.717083658581
0.727861965165
0.738452888349
0.747901901393
0.755768746927
0.762117719965
0.7659843212
0.767447915603
0.76783944907
0.767950705972
0.767987267794
0.767997701732
0.767999601624
0.679148231899
0.681349184938
0.684584743799
0.688963807386
0.694560876951
0.701413329347
0.709519573556
0.718778070141
0.728812829434
0.738696019642
0.747591725373
0.755096646155
0.761259874737
0.765487433353
0.767302092358
0.767804454328
0.767940589959
0.767984405903
0.767997095838
0.767999468727
0.68377683794
0.685806237282
0.688794295887
0.692846972239
0.698040335497
0.704416167458
0.711973814658
0.720595560648
0.729911360413
0.739096381854
0.74743403699
0.754562042471
0.760457213561
0.764915655944
0.767109658987
0.767759960697
0.767928618672
0.767981071605
0.767996370024
0.767999299164
0.68836160339
0.690231625121
0.692989591023
0.696738481906
0.701555194878
0.707484039904
0.714521685153
0.722532730705
0.731152792432
0.739646119932
0.747419686799
0.754149903173
0.759761253414
0.764287780527
0.766859248189
0.767702502358
0.767914401147
0.767977227493
0.767995508124
0.767999083305
0.692914944637
0.694637681696
0.697182778205
0.700650065295
0.7051161705
0.710624718225
0.717159006903
0.724570872469
0.732510296545
0.74032632984
0.747537000354
0.753858858534
0.759200159481
0.76362662769
0.766542288568
0.767627331904
0.767897416427
0.767972838977
0.767994488828
0.767998807594
0.697454329762
0.699040781315
0.70138828913
0.704592753958
0.708728534165
0.713834886489
0.719878288513
0.72669895735
0.733960437823
0.741115897722
0.747770156204
0.753678049203
0.758741941936
0.762984646588
0.76616006467
0.767528251518
0.76787693976
0.767967869361
0.767993280943
0.767998452488
0.702000321975
0.703459769327
0.705622270812
0.708578714983
0.71239841529
0.717109059802
0.722661908577
0.728894996542
0.735485629306
0.741995731183
0.748102712308
0.753594629978
0.758370396604
0.762416206367
0.765707553563
0.767395504387
0.767851760571
0.767962257365
0.767991835882
0.767997989991
0.706573672733
0.707912825938
0.709898803252
0.71261563355
0.716123543886
0.720435324048
0.725490209167
0.731134261544
0.737061122067
0.742941439744
0.748512454754
0.753590039461
0.758071789529
0.761926093972
0.765201177535
0.767216241255
0.767819926254
0.767955917075
0.767990083736
0.767997373667
0.711095352867
0.71231953621
0.714134432426
0.716612963989
0.719799855024
0.723692612395
0.728222869223
0.733239898065
0.738505597713
0.74377890129
0.7488463957
0.753543773659
0.75776376331
0.761458445236
0.764665396027
0.766978038212
0.767781448561
0.767949140379
0.767987985971
0.767996537019
0.768
0.768
0.768
0.768
0.768
0.768
0.768
0.768
0.768
0.768
0.768
0.768
0.768
0.768
0.768
0.768
0.768
0.768
0.768
0.768
0.768
0.768
0.768
0.768
0.768
0.768
0.768
0.768
0.768
0.768
0.768
0.768
0.768
0.768
0.768
0.768
0.768
0.768
0.768
0.768
0.768
0.768
0.768
0.768
0.768
0.768
0.768
0.768
0.768
0.768
0.768
0.768
0.768
0.768
0.767999999999
0.768
0.767999999998
0.767999999999
0.767999999997
0.767999999999
0.767999999994
0.767999999997
0.767999999988
0.767999999995
0.767999999977
0.767999999989
0.767999999956
0.76799999998
0.767999999919
0.767999999961
0.767999999853
0.767999999927
0.76799999974
0.767999999866
0.767999999547
0.767999999758
0.767999999225
0.767999999573
0.767999998696
0.76799999926
0.767999997843
0.76799999874
0.767999996488
0.767999997889
0.767999994372
0.767999996523
0.767999991121
0.767999994369
0.767999986209
0.767999991029
0.767999978901
0.767999985943
0.767999968206
0.767999978333
0.767999952821
0.767999967157
0.767999931084
0.76799995105
0.767999900907
0.767999928258
0.767999859696
0.767999896546
0.767999804201
0.767999853043
0.767999730269
0.767999794007
0.767999632378
0.767999714378
0.767999502947
0.76799960717
0.767999331693
0.767999463165
0.767999103977
0.767999269252
0.767998800591
0.767999009373
0.767998391009
0.767998661525
0.767997729733
0.767998026565
)
;

boundaryField
{
    inletfuel
    {
        type            calculated;
        value           uniform 0;
    }
    inletair
    {
        type            calculated;
        value           uniform 0.768;
    }
    outlet
    {
        type            calculated;
        value           nonuniform List<scalar> 
26
(
0.756957868095
0.756967488177
0.756988613447
0.757018371263
0.757085559089
0.757235211931
0.757458733012
0.75776766411
0.758172311468
0.75868045241
0.759296059202
0.760018146608
0.760839932001
0.761748459203
0.762725014997
0.763746721018
0.764787183383
0.765819200873
0.766823982733
0.7676022045
0.767887302684
0.767958628973
0.76797389712
0.767957713652
0.767909867936
0.767887472246
)
;
    }
    axis
    {
        type            empty;
    }
    leftside
    {
        type            calculated;
        value           nonuniform List<scalar> 
65
(
0.767999998757
0.767999998822
0.768
0.768
0.768
0.767999998822
0.767999999159
0.76799999935
0.767999999484
0.76799999959
0.767999999651
0.767999999676
0.767999999689
0.767999999693
0.767999999692
0.767999999686
0.767999999677
0.767999999664
0.767999999647
0.767999999626
0.767999999602
0.767999999573
0.767999999538
0.767999999498
0.767999999451
0.767999999395
0.76799999933
0.767999999253
0.767999999161
0.767999999052
0.767999998921
0.767999998763
0.767999998572
0.767999998339
0.767999998053
0.767999997699
0.767999997259
0.767999996706
0.767999996008
0.767999995117
0.767999993971
0.767999992482
0.767999990532
0.767999987954
0.767999984518
0.7679999799
0.767999973652
0.767999965125
0.76799995337
0.767999936918
0.767999913366
0.767999878273
0.767999823261
0.767999730499
0.767999563221
0.767999244523
0.767998623458
0.767997413725
0.767995136028
0.767990996562
0.767983880559
0.767972193158
0.767954078489
0.76792683135
0.767887472246
)
;
    }
    burnerwall
    {
        type            calculated;
        value           nonuniform List<scalar> 7(3.43832258221e-08 8.85600141565e-06 0.00112338120032 0.76799986574 0.767981193722 0.766748229565 0.50383628998);
    }
    front
    {
        type            wedge;
    }
    back
    {
        type            wedge;
    }
}


// ************************************************************************* //
