/*--------------------------------*- C++ -*----------------------------------*\
  =========                 |
  \\      /  F ield         | OpenFOAM: The Open Source CFD Toolbox
   \\    /   O peration     | Website:  https://openfoam.org
    \\  /    A nd           | Version:  dev
     \\/     M anipulation  |
\*---------------------------------------------------------------------------*/
FoamFile
{
    version     2.0;
    format      ascii;
    class       volScalarField;
    location    "0.3";
    object      edc::R_CH4;
}
// * * * * * * * * * * * * * * * * * * * * * * * * * * * * * * * * * * * * * //

dimensions      [1 -3 -1 0 0 0 0];

internalField   nonuniform List<scalar> 
1629
(
0
0
0
0
0
0
0
0
0
-2.82923718639e-12
-7.84811271819e-12
-7.98142148098e-11
-8.4886105524e-11
-3.48586394228e-10
-2.03648729406e-09
-3.59930174274e-09
-1.55078474311e-08
-1.57259479267e-07
-1.84777429414e-07
-1.97440799293e-06
-2.61645037953e-05
-1.3107259342e-05
-0.000142920780491
-0.00200535772465
-4.18233870971e-05
-0.000253819599697
-0.00189803045452
-0.000110139660339
-0.000391049586609
-0.00167898819782
-0.000230422841488
-0.000546235099889
-0.00153624457135
-0.000392092414006
-0.000712232092914
-0.00158838290804
-0.000588659705378
-0.000929294239876
-0.00195555610297
-0.000803668969659
-0.00115193388807
-0.00219754422234
-0.00102409815192
-0.00137926470968
-0.0024202358327
-0.00123103658213
-0.00158045976322
-0.00256525333406
-0.00140344068193
-0.00173532622411
-0.00263291669542
-0.00152158856432
-0.0018222517912
-0.00258300833368
-0.00157999220511
-0.00183766178424
-0.00245924853974
-0.00159416768224
-0.00181269664699
-0.00233655269299
-0.00159437181323
-0.00179474820635
-0.00227461359242
-0.0015982619414
-0.00179139057726
-0.00225065445751
-0.0015951432398
-0.00177553163178
-0.00219240918852
-0.0015672682644
-0.00172566122889
-0.00208086010474
-0.00151121304575
-0.00164525196013
-0.00194025129418
-0.00144006171219
-0.00155435178959
-0.00180519530295
-0.00137190740228
-0.00147447233834
-0.00169927069648
-0.00132016261339
-0.00141461508738
-0.00162317961524
-0.00128402256241
-0.00137087201959
-0.00156305701168
-0.00125512731762
-0.00133356310712
-0.00150546545094
-0.00122145511585
-0.00129023348105
-0.00143829333129
-0.00117467319734
-0.00123304654271
-0.00135757737685
-0.00111497670026
-0.00116403730602
-0.00126950004062
-0.00104789883205
-0.00109002058198
-0.00118278317614
-0.000984181586358
-0.00102302752716
-0.00110888530918
-0.000939215207989
-0.000976736152513
-0.001061294495
-0.000928068842577
-0.000967050574463
-0.00105643913905
-0.000965741942874
-0.0010089198969
-0.00110935513714
-0.00106465925508
-0.00111495498321
-0.00123256924224
-0.00123602133795
-0.0012960297235
-0.00143621484847
-0.00149631918798
-0.00156900009687
-0.00173869269745
-0.0018849100495
-0.00197555149013
-0.00218692767924
-0.00248438126324
-0.00260163985639
-0.00287483886187
-0.00343543347491
-0.00359218254008
-0.00395665772989
-0.00495711443235
-0.00517141784772
-0.00566822848201
-0.00737869664026
-0.00767503041864
-0.00835957492292
-0.0111681470966
-0.011577745563
-0.0125201286425
-0.016917736621
-0.0174756034138
-0.0187532822881
-0.0252171951524
-0.0259528354013
-0.0276287812415
-0.036326770145
-0.0372464296906
-0.0393293839469
-0.0496522296231
-0.0507194199367
-0.0531214840285
-0.0633362976002
-0.0644686545892
-0.0670026303409
-0.0746222452245
-0.0757230236501
-0.078175609906
-0.0812977229663
-0.0823069470564
-0.0845507062785
-0.0831317195516
-0.0840455169348
-0.0860768042507
-0.0816207915775
-0.0824619295874
-0.0843310356477
-0.0783279337036
-0.0791071764011
-0.0808366716563
-0.073725262729
-0.0744306400559
-0.0759927822423
-0.0673536258282
-0.0679640396091
-0.0693116674941
-0.0583134842181
-0.0587969657305
-0.0598589398978
-0.0464771805155
-0.0468181917108
-0.0475612629942
-0.0326735681893
-0.0328652445596
-0.0332755058627
-0.01934336142
-0.0194360484815
-0.0196327293522
-3.95315037257e-10
-7.94524535156e-09
-1.5398488644e-06
-0.000210958725796
-0.0204606920907
-0.0108515390618
-0.00562273498492
-0.00352117707407
-0.00355766037344
-0.00512034851191
-0.00502825804671
-0.00501959909163
-0.00473846341515
-0.00446451577793
-0.00400408610693
-0.00352938251796
-0.00320014008301
-0.00307111985924
-0.00300195330059
-0.00284353651554
-0.00261241607639
-0.00237212226537
-0.0021732062294
-0.00203285106095
-0.00193227470532
-0.00184411661042
-0.00175076444411
-0.00164596195907
-0.00153214599833
-0.00141895409812
-0.0013172960737
-0.00123645576073
-0.00119011323037
-0.00119525171726
-0.00126757947716
-0.00141817881499
-0.00165668069752
-0.00200467231013
-0.00251784928368
-0.00330166572826
-0.00452368259958
-0.00643662127613
-0.00941116650685
-0.013956889399
-0.0206850377551
-0.0301390649102
-0.0424176512837
-0.0566461841763
-0.0706861865846
-0.081717077772
-0.0877813419595
-0.0890016056751
-0.0870227710161
-0.0833236484057
-0.0782316402684
-0.0712349866234
-0.0613639772894
-0.0486030516416
-0.0338358599795
-0.0199011804384
-1.67780836751e-18
-6.14603807562e-18
-6.98124405375e-18
-3.86919359557e-18
-9.63422379811e-19
-1.23177631022e-19
-9.15019418503e-21
-4.27435601172e-22
-1.34772286081e-23
-3.00826655086e-25
-4.23035765797e-27
-2.93775475662e-29
0
0
0
0
0
0
0
0
-3.8667424403e-15
-4.08294395697e-15
-2.97086796946e-15
-1.23982345084e-15
-2.18442784337e-16
-1.95684299431e-17
-1.03978486218e-18
-3.5977655475e-20
-8.81275005307e-22
-1.57066653497e-23
-2.03810895477e-25
-1.8698261245e-27
-1.46081195646e-29
0
0
0
0
0
0
0
-3.13780109909e-12
-5.94220161581e-13
-3.76166905234e-13
-1.15836268717e-13
-1.47377578031e-14
-9.82597408694e-16
-4.03846782542e-17
-1.13005689296e-18
-2.33514044367e-20
-3.59072140759e-22
-4.12158869686e-24
-3.63337920835e-26
-2.0379586669e-28
0
0
0
0
0
0
0
-7.95201980527e-10
-3.47628050958e-10
-3.7464879656e-11
-5.82052324069e-12
-5.95857550255e-13
-3.48284642369e-14
-1.25866409275e-15
-3.20701838454e-17
-6.08525857993e-19
-8.63128894825e-21
-9.19157162944e-23
-7.35127531092e-25
-4.5249039833e-27
-2.17546195422e-29
-4.53238225781e-31
0
0
0
0
0
-2.94386268353e-08
-1.72207587765e-08
-1.821270624e-09
-1.82076425166e-10
-1.79204022308e-11
-1.02211776678e-12
-3.55402440875e-14
-8.86411166766e-16
-1.59390551587e-17
-2.13449593415e-19
-2.15249964069e-21
-1.64807731147e-23
-9.61606847401e-26
-4.04525982645e-28
-1.80599987674e-30
0
0
0
0
0
-6.67717779036e-06
-9.20241802843e-06
-1.79380985905e-07
-6.82582035035e-09
-5.2849162289e-10
-2.89024913745e-11
-9.92446994762e-13
-2.27067553084e-14
-3.84640096915e-16
-4.85526330229e-18
-4.67549120996e-20
-3.4593277076e-22
-1.97634152251e-24
-8.86410986002e-27
-2.8781083168e-29
0
0
0
0
0
-0.00170839559387
-0.00418923249128
-6.0687784722e-05
-1.33245380092e-06
-2.45238858107e-08
-8.23130663058e-10
-2.33680410627e-11
-4.92225600339e-13
-7.5404751295e-15
-9.1564389566e-17
-8.57450717641e-19
-6.26567780649e-21
-3.57832069899e-23
-1.60499550027e-25
-5.44585214022e-28
0
0
0
0
0
-0.349402421894
-17.8774788207
-0.0177921363096
-6.37434297989e-05
-5.94514925999e-07
-1.12310355119e-08
-3.10138101007e-10
-6.43038280411e-12
-1.01096778864e-13
-1.24302354933e-15
-1.19966341118e-17
-9.07824954488e-20
-5.37381917203e-22
-2.49671494767e-24
-9.36105233562e-27
-2.85455836333e-29
0
0
0
0
-0.102082833547
-2.63386864094
-0.00915751492188
-4.47223578963e-05
-9.88284006472e-07
-2.60920944916e-08
-1.10595453777e-09
-3.4651482918e-11
-7.20926810923e-13
-1.05908681187e-14
-1.18876223869e-16
-1.00155494327e-18
-6.46399219674e-21
-3.23076254657e-23
-1.26836626321e-25
-3.9787557608e-28
0
0
0
0
-0.0272678550064
-0.30771834398
-0.00308222880482
-1.80291837256e-05
-9.78149330506e-07
-4.07266677042e-08
-2.48276586045e-09
-1.17029891529e-10
-3.38450433536e-12
-6.49171193633e-14
-8.7638629039e-16
-8.59171235032e-18
-6.27110912781e-20
-3.46493566869e-22
-1.47883988489e-24
-4.97898977364e-27
-1.41672479521e-29
0
0
0
-0.0101684707878
-0.043309618485
-0.0102252782314
-3.2302105631e-05
-1.62356360782e-06
-8.1472194063e-08
-5.63552846696e-09
-3.40104925456e-10
-1.3216609315e-11
-3.23803181795e-13
-5.25381487358e-15
-6.07109315442e-17
-5.07571174766e-19
-3.14436150907e-21
-1.4757578719e-23
-5.3608440521e-26
-1.41044418748e-28
0
0
0
-0.0157062046376
-0.643448263881
-8.34906846238
-0.00658662216392
-4.90938104204e-05
-7.80944352827e-07
-2.49592206696e-08
-1.30035361281e-09
-5.39446298615e-11
-1.43472643583e-12
-2.78098709996e-14
-3.72566059209e-16
-3.54598571842e-18
-2.46709456528e-20
-1.27903919672e-22
-5.05663126516e-25
-1.62860664132e-27
-5.3679457785e-30
0
0
-0.0287667464087
-1.10857226343
-8.74901619921
-0.0255567489181
-0.000100060390831
-2.12583111895e-06
-5.74669129107e-08
-3.47120344944e-09
-1.67134156377e-10
-5.88619472387e-12
-1.29893125416e-13
-1.99063969487e-15
-2.15729742812e-17
-1.68988720081e-19
-9.71641307173e-22
-4.19251375045e-24
-1.38613693053e-26
-3.57544050262e-29
0
0
-0.0211010823813
-0.404648408771
-12.7961517732
-0.00995465548064
-4.4522378828e-05
-1.81563050577e-06
-7.67863777011e-08
-6.14371422699e-09
-4.29189860928e-10
-1.82891110385e-11
-5.04487719813e-13
-8.90934571606e-15
-1.13681503297e-16
-1.01078293895e-18
-6.4858385513e-21
-3.06458520865e-23
-1.08569583125e-25
-2.57285738006e-28
0
0
-0.0176513647976
-0.207150740549
-16.0872950305
-0.00765666627749
-5.83209188894e-06
-2.59779091908e-07
-7.26163870728e-08
-8.84240725485e-09
-8.37666777491e-10
-4.77799693995e-11
-1.65111287456e-12
-3.49965416523e-14
-5.19871523019e-16
-5.28944161576e-18
-3.81588597407e-20
-1.98727421169e-22
-7.58831762326e-25
-2.17211954769e-27
-5.33210838184e-30
0
-0.0133111590336
-0.0878772812184
-2.63914801279
-2.73754189679
-0.00260784557424
-1.86144892697e-05
-3.21112030883e-07
-1.64165524834e-08
-1.6076580887e-09
-1.06908040371e-10
-4.5253809402e-12
-1.21133535134e-13
-2.08761485553e-15
-2.44095482409e-17
-1.99108166927e-19
-1.14976011405e-21
-4.77097892386e-24
-1.4405965863e-26
-2.19129389392e-29
0
-0.0110798100534
-0.0675657732425
-1.20061979367
-3.84051056037
-0.0110638602916
-4.83266497527e-05
-8.20456018582e-07
-2.69138779226e-08
-2.72447939335e-09
-2.31270086687e-10
-1.1938518774e-11
-3.69680889343e-13
-7.44162027174e-15
-1.00288066383e-16
-9.2872547273e-19
-5.97531547605e-21
-2.70527406426e-23
-8.73881129006e-26
-1.57455111218e-28
0
-0.0084763217769
-0.0381555744665
-0.487864371567
-5.99523995786
-0.00642622456792
-2.51740096048e-05
-6.47414108423e-07
-2.76972641247e-08
-3.6544421208e-09
-3.70928557679e-10
-2.54063058431e-11
-9.99091433979e-13
-2.27787457435e-14
-3.70094144826e-16
-3.90393132576e-18
-2.81077031698e-20
-1.39639293162e-22
-4.82605116127e-25
-1.06115293645e-27
0
-0.00652277585597
-0.0225441748144
-0.231273470101
-8.19333479204
-0.00417554780491
-5.23687743635e-06
-1.41143422355e-07
-1.9314749578e-08
-3.90499095391e-09
-5.75308585003e-10
-4.84725224584e-11
-2.42363560946e-12
-6.63723762099e-14
-1.23914882367e-15
-1.49159274705e-17
-1.20625911483e-19
-6.60863721303e-22
-2.46609448915e-24
-5.67273420444e-27
0
-0.0055116847193
-0.0172265298042
-0.152045234555
-9.90665443168
-0.00804557019328
3.0164920031e-06
4.4220406148e-07
1.53854124964e-09
-3.22566752789e-09
-7.63706347912e-10
-8.59651520924e-11
-4.64522808598e-12
-1.77279543346e-13
-3.80496618195e-15
-5.22933803622e-17
-4.76157864785e-19
-2.88824224824e-21
-1.16961899958e-23
-2.78739378026e-26
0
-0.00518128802856
-0.0151908689207
-0.102012329646
-8.68514230994
-1.31250989745
-0.00341752349239
-1.78593379462e-05
-2.00663295959e-07
-7.1766645977e-09
-1.20184771336e-09
-1.51742202007e-10
-1.05141317472e-11
-4.40209279021e-13
-1.08442004845e-14
-1.69813080937e-16
-1.74242661339e-18
-1.1735838285e-20
-5.18912930998e-23
-1.3224858874e-25
-8.68374332746e-29
-0.00494439078614
-0.0134418017444
-0.0781514937754
-3.99141705862
-2.01095094658
-0.00960563463798
-3.5135823256e-05
-4.18390391599e-07
-8.04453386161e-09
-1.57938024031e-09
-2.42308065385e-10
-2.16781912798e-11
-1.01584500634e-12
-2.82160800656e-14
-5.13768223199e-16
-5.94482975979e-18
-4.4578861242e-20
-2.16218383284e-22
-5.92372098737e-25
-3.43292325738e-28
-0.00442732386132
-0.0102090235656
-0.0424061694068
-1.32374652488
-3.47714678253
-0.0067298509122
-1.80051610284e-05
-1.81432505726e-07
-3.75146550236e-09
-1.39098137362e-09
-3.22094407414e-10
-3.48016737142e-11
-2.1697340116e-12
-6.57103055278e-14
-1.45349507046e-15
-1.89738110002e-17
-1.58899273104e-19
-8.48932856214e-22
-2.5086813344e-24
-3.05319687957e-27
-0.00384643830017
-0.00766217566182
-0.0246876367436
-0.564107579298
-4.75110218083
-0.00676168175698
-9.21561990106e-06
5.15196721295e-08
4.29274325417e-09
-5.71889214116e-10
-3.5100342269e-10
-5.14788626354e-11
-4.24493606554e-12
-1.54797339621e-13
-3.8505868735e-15
-5.67950132568e-17
-5.32954709133e-19
-3.14932867369e-21
-1.01307218391e-23
-1.00573119538e-26
-0.00335891235561
-0.00608064403209
-0.0173626497502
-0.32023235027
-5.5890441804
-0.534318493411
-0.00110672094365
-4.61026698646e-06
-1.27300502862e-08
-3.88950320672e-10
-3.92161478125e-10
-7.32236863134e-11
-6.07718558178e-12
-3.42490107978e-13
-9.58872092739e-15
-1.59897168742e-16
-1.68612153174e-18
-1.10650739741e-20
-3.89249870312e-23
-4.37347773481e-26
-0.0030130839626
-0.00518637706117
-0.0142882070501
-0.212244194234
-5.87547019575
-0.522768287708
-0.00427302819569
-2.07973693208e-05
-1.31356293151e-07
-3.16268021618e-10
-4.24649712011e-10
-1.08926079487e-10
-1.02624748883e-11
-7.08782714905e-13
-2.24768962777e-14
-4.24244058258e-16
-5.04133371589e-18
-3.68746560395e-20
-1.42456909273e-22
-1.6768642701e-25
-0.00278708115179
-0.00469781180569
-0.0131857793672
-0.156722225395
-4.88837533959
-0.951624140519
-0.00795956131669
-2.88038066005e-05
-1.89461920117e-07
1.36048271687e-10
-3.29511907169e-10
-1.29912432804e-10
-1.95169085271e-11
-1.35466656281e-12
-4.95964063746e-14
-1.06199777491e-15
-1.42648142546e-17
-1.16724344332e-19
-4.97211071616e-22
-6.47662654331e-25
-0.00260807892
-0.00426451158939
-0.0116781529291
-0.111994447649
-3.52560415996
-1.610325829
-0.0104981566698
-2.1759486931e-05
-1.39443707035e-07
1.09047494881e-09
-5.22328708325e-11
-1.2888179976e-10
-2.90292467347e-11
-2.40415547835e-12
-8.50531727172e-14
-2.51732009887e-15
-3.82595826724e-17
-3.51497715592e-19
-1.6566835272e-21
-2.38813531153e-24
-0.0024266277998
-0.00378933708573
-0.00971118437237
-0.0771557143619
-2.4148273524
-2.25808439313
-0.0166362783426
-1.76741424446e-05
-1.87220046119e-08
3.75246432986e-09
4.08781963813e-10
-8.08642119162e-11
-2.98547695276e-11
-3.93452719349e-12
-1.62586016713e-13
-5.66861490654e-15
-9.75010944485e-17
-1.00862855775e-18
-5.27547896269e-21
-8.45796666842e-24
-0.00223733299183
-0.00336649328411
-0.00831868935821
-0.0580989544125
-1.65002931737
-2.74156870736
-0.273531194383
-0.00106487472706
-4.33925631821e-06
-8.21902752988e-09
6.11117174131e-10
-5.22914751683e-11
-3.27851386946e-11
-5.83326785736e-12
-3.13913992563e-13
-1.21487639721e-14
-2.36452279191e-16
-2.7612886148e-18
-1.60640277508e-20
-2.86298951512e-23
-0.00204738570774
-0.00303650671203
-0.00750320785264
-0.0474033887039
-1.12103896765
-3.22337247048
-0.249326202233
-0.00334743091037
-1.64220429385e-05
-7.63218185621e-08
8.53688641209e-10
-1.80638731902e-11
-3.74463966202e-11
-6.83005437946e-12
-5.78856852687e-13
-2.48355251165e-14
-5.45790542659e-16
-7.21345555652e-18
-4.67811154617e-20
-9.32038995317e-23
-0.00187002971869
-0.00280923119576
-0.00710756623378
-0.0413887670553
-0.799745807413
-3.35554046137
-0.367871175297
-0.00664458621248
-2.91940144839e-05
-1.42981925066e-07
8.13354309483e-10
4.88293671024e-11
-3.68445981354e-11
-6.41992187725e-12
-1.00987710966e-12
-4.8296430337e-14
-1.19892523589e-15
-1.79762125359e-17
-1.30248238136e-19
-2.90230844881e-22
-0.00172098349285
-0.00269022513533
-0.00704550653951
-0.0385368716747
-0.602506022317
-3.24866859335
-0.529452135968
-0.0131164914186
-4.32315371931e-05
-2.27232898245e-07
2.54149037333e-10
1.45982140094e-10
-2.57898723822e-11
-9.45423641459e-12
-1.62636081591e-12
-8.94911244723e-14
-2.50665527766e-15
-4.27302898347e-17
-3.46675687896e-19
-8.6754954429e-22
-0.00160913266343
-0.00265701300862
-0.00711320423365
-0.0366870905813
-0.480417707473
-2.98860391365
-0.701328344899
-0.0862024962481
-0.000214526861074
-7.29786967515e-07
2.25702217378e-09
3.51838800063e-10
-5.30671431763e-12
-1.44964200742e-11
-2.3915237775e-12
-1.08675866974e-13
-5.008741319e-15
-9.6872285811e-17
-8.82291696697e-19
-2.48538342278e-21
-0.00153557771919
-0.00266528364311
-0.0070814627658
-0.0341174716885
-0.379769970795
-2.52157720711
-0.927510330933
-0.0635312880932
-0.000783774873443
-3.52779537022e-06
-4.79734855895e-09
5.28547662297e-10
2.03995297113e-11
-1.34399648892e-11
-3.30087102316e-12
-1.38102208449e-13
-9.61295973585e-15
-2.09499036928e-16
-2.14720106689e-18
-6.8190930553e-21
-0.00151376876736
-0.00273915157782
-0.00718421447211
-0.0327797260307
-0.315452893046
-2.12714705619
-1.13543041101
-0.0853833563684
-0.00204255730187
-1.11453897581e-05
-3.40839942077e-08
7.8050310095e-10
6.00373169649e-11
-8.91788515132e-12
-4.16625661823e-12
-2.21096598607e-13
-1.76325975001e-14
-4.32154334798e-16
-4.99639119929e-18
-1.79271729777e-20
-0.00156211416696
-0.00291171800544
-0.00758015860223
-0.0331479310601
-0.278957124169
-1.82865832096
-1.31064035624
-0.115928592593
-0.00421233937452
-2.47288224678e-05
-8.73557575121e-08
1.05872734501e-09
1.06786583348e-10
-2.5372311012e-12
-4.5513132896e-12
-3.59785448692e-13
-3.09778057865e-14
-8.4992646622e-16
-1.1122548642e-17
-4.52145444271e-20
-0.00169406990551
-0.00320342231664
-0.00832010948153
-0.035019604223
-0.260527185799
-1.61124179315
-1.41065920856
-0.146994621383
-0.0106427931985
-4.59772878321e-05
-1.80691716613e-07
1.10359368182e-09
1.64830302352e-10
7.14014022777e-12
-3.60113830063e-12
-5.54506409855e-13
-5.22589923959e-14
-1.59461776829e-15
-2.37164471236e-17
-1.09521344792e-19
-0.00191713211789
-0.00363762489853
-0.00944390749982
-0.0382469652102
-0.253602785373
-1.43381025599
-1.44674637175
-0.175760133781
-0.025386364936
-0.000144764022709
-5.3421625989e-07
2.80642703754e-09
2.73671362311e-10
2.11551625186e-11
-1.57880069137e-12
-8.03169777149e-13
-8.34689710298e-14
-2.85279560804e-15
-4.84684163235e-17
-2.55210020127e-19
-0.00224336620476
-0.004258543142
-0.0110224329011
-0.0428048532656
-0.253456768025
-1.26682154917
-1.43354951041
-0.210056682466
-0.0177648864394
-0.00040372683456
-1.91319430594e-06
1.58224074092e-09
4.20427202988e-10
4.00150752152e-11
7.67488031472e-13
-1.08470380492e-12
-1.27485238575e-13
-4.85378386621e-15
-9.48322646477e-17
-5.72256938881e-19
-0.00271012791745
-0.0051464835881
-0.0131906375072
-0.0488591596357
-0.257640758791
-1.12431553097
-1.37521193249
-0.248966683043
-0.0197508790959
-0.00090815370232
-5.34466281407e-06
-6.8187076726e-09
6.54580809679e-10
6.31577241582e-11
3.09610441228e-12
-1.1403518233e-12
-1.69631647932e-13
-7.82560731017e-15
-1.77270083284e-16
-1.23451110197e-18
-0.00339728754335
-0.00643072492389
-0.0161756040781
-0.0567702502559
-0.2652082563
-1.00225106884
-1.28306367452
-0.287630820201
-0.0229784148476
-0.00178526152269
-1.26985624131e-05
-2.67242884013e-08
9.89359784979e-10
9.8633998045e-11
7.81620040909e-12
-9.72626669754e-13
-1.36209336817e-13
-1.19466288383e-14
-3.16068610674e-16
-2.56333325757e-18
-0.00443662031584
-0.00830458825987
-0.0203087781663
-0.0669758916497
-0.275454359813
-0.898193914755
-1.17173634911
-0.320187361437
-0.0259574026415
-0.00361107986006
-2.64823227899e-05
-6.12206529891e-08
1.51126132815e-09
1.46344257021e-10
1.47466464029e-11
-4.75936946253e-13
-8.18006577542e-14
-1.77920775375e-14
-5.36379938734e-16
-5.12798153414e-18
-0.00602701734856
-0.0110528800978
-0.0260432935103
-0.0799335876097
-0.287846709568
-0.812058799694
-1.06161943979
-0.338328225726
-0.0288433187081
-0.00624590492336
-6.22187920263e-05
-1.61136232365e-07
2.94036438207e-09
2.24421467299e-10
2.43201363766e-11
6.09081350781e-13
4.99660453958e-15
-2.49816420567e-14
-8.62580492528e-16
-9.88727214627e-18
-0.0084630490164
-0.0150805087985
-0.0339326757161
-0.0959458289182
-0.30152676499
-0.741919879343
-0.964265016575
-0.340272464708
-0.0327455400386
-0.00437125532634
-0.000156650145085
-6.06692103994e-07
5.07429521495e-09
3.48597575087e-10
3.7405293363e-11
2.40609064024e-12
1.39572448483e-13
-3.26063314188e-14
-1.30394843085e-15
-1.83538279862e-17
-0.0121652751301
-0.0209149090134
-0.0445300867819
-0.114856511168
-0.314701528585
-0.682137272949
-0.872791989177
-0.332787272448
-0.0363512571621
-0.00393383076207
-0.000323635145237
-1.77433855391e-06
6.21056479452e-09
5.26520277184e-10
5.46896192535e-11
4.93254962138e-12
3.40701975134e-13
-3.85165006047e-14
-1.82938534172e-15
-3.27262393881e-17
-0.0176862760617
-0.0291569573941
-0.0582231551819
-0.135890751088
-0.325410971719
-0.629411891873
-0.776861826278
-0.318665662628
-0.0387733225082
-0.00406994923223
-0.000547389442159
-4.96781762982e-06
3.95800372421e-09
7.90663926907e-10
7.73278604367e-11
8.27958036814e-12
6.3005177042e-13
-3.87884377872e-14
-2.35165257674e-15
-5.58832873709e-17
-0.0256400679902
-0.0403168966675
-0.0749384090774
-0.157486247732
-0.331702929518
-0.58040304499
-0.689684042908
-0.297726926309
-0.0395097949165
-0.00410872466991
-0.000857640336022
-1.13626118663e-05
-1.41608497042e-08
1.19059659591e-09
1.04851032198e-10
1.25002000529e-11
1.03368074554e-12
-2.7369760464e-14
-2.73007240322e-15
-9.10334456414e-17
-0.0364805392732
-0.0544814928114
-0.093770181647
-0.177352379823
-0.332169954397
-0.53356714047
-0.608183305999
-0.271719756424
-0.0384265669263
-0.00392954308612
-0.00127567266117
-2.29253395391e-05
-7.85659128556e-08
1.86193943301e-09
1.44707427083e-10
1.76895321734e-11
1.58763519372e-12
3.88346937996e-15
-2.61873426562e-15
-1.40605041451e-16
-0.0500770294606
-0.070852425522
-0.112744857703
-0.192895219673
-0.32625814651
-0.48819246242
-0.531108273656
-0.24280330549
-0.0356344055997
-0.00357714608126
-0.00142614164036
-4.32926934825e-05
-2.73952995807e-07
2.82693075631e-09
2.15385189506e-10
2.40496065566e-11
2.34400091821e-12
6.46167821503e-14
-1.51983479164e-15
-2.03813505457e-16
-0.0652136631704
-0.0874378312891
-0.129079803648
-0.202027588545
-0.314423078278
-0.443906077735
-0.457514395844
-0.213110075096
-0.0313275967792
-0.00317803190398
-0.00111738436091
-7.6721464386e-05
-8.07793595321e-07
3.31618911618e-09
3.27964307839e-10
3.25811373481e-11
3.37681505207e-12
1.6522558812e-13
1.25329885805e-15
-2.72365481398e-16
-0.0794667525878
-0.101393179972
-0.140154844553
-0.204038233828
-0.29806648525
-0.400749583285
-0.387321689177
-0.184243243835
-0.0258525959866
-0.00264455207271
-0.000870542832141
-0.000121829496085
-1.98032877236e-06
9.55521372396e-11
5.05637432612e-10
4.48459141938e-11
4.79759707334e-12
3.16901564304e-13
6.57611233556e-15
-3.23990052077e-16
-0.0900268970066
-0.110267065059
-0.144820984105
-0.200061399496
-0.279426381745
-0.35995617287
-0.323137033543
-0.150837341924
-0.0208708306044
-0.00216951297501
-0.000730620029802
-0.000174398999739
-4.1610876346e-06
-1.28894502017e-08
7.62360053719e-10
6.3266475633e-11
6.77986657511e-12
5.33379151229e-13
1.55253379168e-14
-3.13822320091e-16
-0.0952890922669
-0.113408574024
-0.143963095823
-0.192291810371
-0.26016055422
-0.32088796427
-0.26304951284
-0.115386742677
-0.016716457346
-0.00191003456998
-0.000628998453906
-0.000227544211735
-7.68572287192e-06
-4.78059591379e-08
1.10460458395e-09
9.15919996993e-11
9.58903487081e-12
8.34579174721e-13
2.94358297475e-14
-1.63608130431e-16
-0.0957644523138
-0.112082360691
-0.139480450261
-0.182247563493
-0.239409955207
-0.278976272164
-0.203956038636
-0.0851457606246
-0.0133969626107
-0.00172808671808
-0.000543517651427
-0.000274460075383
-1.28460713976e-05
-1.29091171817e-07
1.47763620886e-09
1.37440669129e-10
1.36338917226e-11
1.25294523697e-12
5.00311021493e-14
2.51753559704e-16
-0.0932179710528
-0.10812863121
-0.132854843263
-0.170172268423
-0.215347984405
-0.231904289829
-0.150924477527
-0.0611703962353
-0.0105003023976
-0.00152549885431
-0.000466915980721
-0.000304343789496
-1.97992746178e-05
-3.03937406895e-07
1.41773427033e-09
2.06622183188e-10
1.94567421905e-11
1.83682011937e-12
7.95638580729e-14
1.12204921896e-15
-0.0890033094667
-0.102528658235
-0.124328340932
-0.155180022434
-0.186365041537
-0.180492678359
-0.111064485491
-0.0415853770605
-0.00781240078839
-0.00127685033377
-0.000394573804835
-0.000311909102706
-2.7594825661e-05
-6.32670211921e-07
-1.17310187879e-10
3.08022320207e-10
2.77075902752e-11
2.6503972117e-12
1.20855849598e-13
2.7279460438e-15
-0.083281714412
-0.095072482409
-0.113191352702
-0.136272158453
-0.15245327919
-0.128791585342
-0.0873977515651
-0.0249195494404
-0.00519098583984
-0.000963288527239
-0.000321155723257
-0.000298197172174
-3.50078604207e-05
-1.19575622743e-06
-5.54041530313e-09
4.57964836589e-10
3.94885469349e-11
3.76130567265e-12
1.77484948961e-13
5.48537887409e-15
-0.0754957916315
-0.0851819256232
-0.0991097494861
-0.114139322031
-0.116936598819
-0.0872804581305
-0.0553652587341
-0.0148096312651
-0.00336798719606
-0.000700013213669
-0.000258275519555
-0.000270830913092
-4.08413249898e-05
-2.07856025412e-06
-1.93916546177e-08
6.41854271364e-10
5.59727326491e-11
5.24239437168e-12
2.53879943506e-13
1.00212386238e-14
-0.0646004188434
-0.0716279254538
-0.0805307343839
-0.0867017493191
-0.078370000426
-0.0629876582849
-0.0301497987946
-0.0086174821994
-0.00214057773435
-0.000496540646338
-0.000207906174698
-0.000238099319542
-4.46073348885e-05
-3.21979103775e-06
-4.7770671121e-08
8.15939952248e-10
7.88103011827e-11
7.15675172096e-12
3.55584851592e-13
1.72990439604e-14
-0.0507297395131
-0.0549762519025
-0.0589816754426
-0.058038501794
-0.0497373540532
-0.0415014072054
-0.0148430190984
-0.00462337468631
-0.0012702762529
-0.000332974069897
-0.000166157013987
-0.00020463692122
-4.61154845099e-05
-4.42837798056e-06
-1.01720466678e-07
8.36550951855e-10
1.10668368056e-10
9.53035038168e-12
4.89560366924e-13
2.87920433716e-14
-0.0348442504892
-0.0364290336969
-0.0366432118105
-0.0350497567635
-0.0394241511639
-0.0175931659786
-0.00679116127662
-0.00230691411076
-0.000702032413603
-0.000210588532348
-0.000131779821865
-0.000172491488238
-4.54816094651e-05
-5.50595812126e-06
-1.92879030956e-07
3.09734919608e-10
1.56673653386e-10
1.23340074526e-11
6.63725826641e-13
4.68643686848e-14
-0.0203577039736
-0.0213550295703
-0.024283217017
-0.0280456202726
-0.0148547161918
-0.0069679795035
-0.00290512706213
-0.00107971324949
-0.000364762820101
-0.000127479914713
-0.000102263425874
-0.000144746810464
-4.46328121104e-05
-6.58396534092e-06
-3.37415130361e-07
-1.31894706179e-09
2.18295573514e-10
1.52681506112e-11
8.78129998232e-13
7.49872671213e-14
0
0
0
0
0
0
0
0
0
0
0
0
0
0
0
0
0
0
0
0
0
0
0
0
0
0
0
0
0
0
0
0
0
0
0
0
0
0
0
0
-2.13944828795e-28
0
-8.49657083367e-28
0
-4.21842890971e-27
0
-1.67547164329e-26
-1.78895203884e-27
-7.31918327654e-26
-1.42475983106e-26
-3.03875250963e-25
-6.40257975808e-26
-1.10173154429e-24
-2.27934623735e-25
-4.06175520075e-24
-9.14834595409e-25
-1.41593158144e-23
-3.56279229175e-24
-4.79876730048e-23
-1.29517091865e-23
-1.53362576278e-22
-4.49484046466e-23
-4.70696425951e-22
-1.48755997798e-22
-1.38000094876e-21
-4.73841662849e-22
-3.87683980836e-21
-1.44134423416e-21
-1.04469959443e-20
-4.21648997893e-21
-2.70785670945e-20
-1.18028500123e-20
-6.75225116723e-20
-3.17071624845e-20
-1.61945895719e-19
-8.18912135339e-20
-3.73915343927e-19
-2.03249102174e-19
-8.31782839691e-19
-4.85176763345e-19
-1.78385012367e-18
-1.11486104665e-18
-3.68687689631e-18
-2.46531199803e-18
-7.33393636437e-18
-5.24039730209e-18
-1.40134189651e-17
-1.06924907608e-17
-2.56504129803e-17
-2.08881059072e-17
-4.47929934973e-17
-3.89314752283e-17
-7.41458808387e-17
-6.88600753459e-17
-1.15182115284e-16
-1.14702029737e-16
-1.65191707966e-16
-1.77821430076e-16
-2.12198098329e-16
-2.51589555284e-16
-2.27036863872e-16
-3.12138144152e-16
-1.52068917473e-16
-3.03822102784e-16
1.15018701321e-16
-1.1674207269e-16
7.4588971625e-16
4.4947262154e-16
2.02383275627e-15
1.74995751601e-15
4.41031957672e-15
4.39658834778e-15
8.66328837401e-15
9.44702263936e-15
1.59806569277e-14
1.86268888128e-14
2.82790235418e-14
3.46240101276e-14
5.21088651156e-14
7.06067962187e-14
)
;

boundaryField
{
    inletfuel
    {
        type            calculated;
        value           uniform 0;
    }
    inletair
    {
        type            calculated;
        value           uniform 0;
    }
    outlet
    {
        type            calculated;
        value           uniform 0;
    }
    axis
    {
        type            empty;
    }
    leftside
    {
        type            calculated;
        value           uniform 0;
    }
    burnerwall
    {
        type            calculated;
        value           uniform 0;
    }
    front
    {
        type            wedge;
    }
    back
    {
        type            wedge;
    }
}


// ************************************************************************* //
