/*--------------------------------*- C++ -*----------------------------------*\
  =========                 |
  \\      /  F ield         | OpenFOAM: The Open Source CFD Toolbox
   \\    /   O peration     | Website:  https://openfoam.org
    \\  /    A nd           | Version:  dev
     \\/     M anipulation  |
\*---------------------------------------------------------------------------*/
FoamFile
{
    version     2.0;
    format      ascii;
    class       volScalarField;
    location    "0.3";
    object      edc::YStar_CH3O;
}
// * * * * * * * * * * * * * * * * * * * * * * * * * * * * * * * * * * * * * //

dimensions      [0 0 0 0 0 0 0];

internalField   nonuniform List<scalar> 
1629
(
3.38080009693e-20
2.92565288736e-20
2.03225740267e-20
5.00166824049e-18
5.83813077662e-18
8.25688895359e-18
4.18596837267e-16
6.98602547385e-16
1.96921838602e-15
2.74221833234e-14
6.43707698657e-14
3.12639423646e-13
1.63231199442e-12
4.58299628452e-12
2.11520045688e-11
8.685717673e-11
2.82104172102e-10
1.25713518381e-09
3.61663292246e-09
1.27125610756e-08
5.5281292184e-08
9.01115806161e-08
3.25574304084e-07
1.46163358007e-06
3.86632401509e-07
1.05644952064e-06
3.38091540064e-06
9.79209263116e-07
2.06724944293e-06
4.95333284213e-06
1.83252489678e-06
3.11358646649e-06
5.86443175011e-06
2.83451663756e-06
4.08987894508e-06
6.47384981737e-06
3.9218179801e-06
5.09083032641e-06
7.30852592069e-06
5.04472288198e-06
6.11477014898e-06
8.19505563664e-06
6.14191425868e-06
7.10921110184e-06
9.02922682419e-06
7.07586350291e-06
7.89212267627e-06
9.48221206232e-06
7.67557696643e-06
8.28541212042e-06
9.40906656398e-06
7.81142595955e-06
8.1903208333e-06
8.81284269586e-06
7.45571239617e-06
7.62463031868e-06
7.82727716151e-06
6.70828420563e-06
6.73121694815e-06
6.67482309051e-06
5.76073348022e-06
5.7192509346e-06
5.57431593962e-06
4.79102878729e-06
4.74117435496e-06
4.60418212296e-06
3.8894320721e-06
3.84755040326e-06
3.73045677062e-06
3.08289877339e-06
3.04573761025e-06
2.93512866798e-06
2.38272815484e-06
2.34663901631e-06
2.2367809756e-06
1.79835859292e-06
1.76318386971e-06
1.65698383832e-06
1.32893147523e-06
1.29470464472e-06
1.19591811951e-06
9.56392333759e-07
9.23527386704e-07
8.35867542987e-07
6.62161472747e-07
6.32586659658e-07
5.59113815076e-07
4.35549728808e-07
4.11793068445e-07
3.5786267524e-07
2.7291453044e-07
2.56506516732e-07
2.21711685205e-07
1.65351450432e-07
1.55400755419e-07
1.35063617318e-07
9.8666061829e-08
9.32029333991e-08
8.21815363498e-08
5.92491180591e-08
5.64688863761e-08
5.08303688469e-08
3.65141578125e-08
3.51575152867e-08
3.24007537248e-08
2.34532975876e-08
2.28285375953e-08
2.15352617464e-08
1.58754367964e-08
1.56026268012e-08
1.50210628581e-08
1.13488071439e-08
1.12389233842e-08
1.09891827113e-08
8.49678965398e-09
8.4529788844e-09
8.34248884982e-09
6.5489198981e-09
6.52891484423e-09
6.4721482234e-09
5.12833947299e-09
5.11898940036e-09
5.08722117838e-09
4.09380968965e-09
4.09262377369e-09
4.08399311548e-09
3.39730120359e-09
3.40554014014e-09
3.42074217639e-09
2.99960544395e-09
3.016862605e-09
3.0539339785e-09
2.85634621316e-09
2.88184335622e-09
2.93843764394e-09
2.93078112275e-09
2.9642218529e-09
3.03936272767e-09
3.19414436936e-09
3.23544113265e-09
3.32855520454e-09
3.60905800648e-09
3.65714153635e-09
3.76531156762e-09
4.10515513118e-09
4.15662947511e-09
4.27155510975e-09
4.55678497965e-09
4.60540124777e-09
4.71280616453e-09
4.78665141577e-09
4.82479961511e-09
4.90785927224e-09
4.62482453561e-09
4.64697081434e-09
4.69404283478e-09
4.01435944873e-09
4.02043018291e-09
4.03212206436e-09
3.08152578916e-09
3.07687024983e-09
3.06548947324e-09
2.07819704579e-09
2.06976024973e-09
2.05062946012e-09
1.23120223247e-09
1.22371156012e-09
1.20706368929e-09
6.43739715159e-10
6.3902318666e-10
6.28664076925e-10
3.0618965679e-10
3.04254728776e-10
3.00096738158e-10
1.53383320966e-10
1.53551974941e-10
1.54043716124e-10
1.12368339687e-10
1.13912579268e-10
1.17423837161e-10
1.28788469146e-10
1.31166942739e-10
1.3648084364e-10
1.73745163341e-10
1.76561036885e-10
1.82773648284e-10
2.30672098338e-10
2.33327990223e-10
2.39096753956e-10
1.08415372826e-12
6.20848277757e-11
3.4167237167e-09
1.66257366497e-07
5.5126026027e-06
8.90369342504e-06
9.79425146568e-06
9.24641102409e-06
9.0567640522e-06
1.00375022183e-05
1.08321846013e-05
1.14866265005e-05
1.13416893143e-05
1.0528738577e-05
9.24793804283e-06
7.77338647369e-06
6.39003533677e-06
5.27439349817e-06
4.35564487499e-06
3.50488556103e-06
2.70999982237e-06
2.01447660376e-06
1.44999985329e-06
1.0161291799e-06
6.89487451308e-07
4.51205772698e-07
2.86417369333e-07
1.78455800337e-07
1.10536512052e-07
6.90242659183e-08
4.40606887414e-08
2.90358942836e-08
1.99102256813e-08
1.42611287939e-08
1.06336979616e-08
8.16465572174e-09
6.36800747876e-09
5.02660846984e-09
4.06446909099e-09
3.44030714655e-09
3.10742985913e-09
3.02162279511e-09
3.15061875477e-09
3.46627642673e-09
3.92392293791e-09
4.43784504859e-09
4.86541899072e-09
5.02307858686e-09
4.75672662143e-09
4.04496451113e-09
3.04708744125e-09
2.02259073634e-09
1.18334068372e-09
6.14197555188e-10
2.94522048652e-10
1.55055356826e-10
1.22668794778e-10
1.44196647677e-10
1.91627207416e-10
2.47066400033e-10
1.30358672851e-19
2.38684863112e-18
7.0206378319e-18
1.07415917401e-17
8.42946852089e-18
4.10940281645e-18
1.40197899162e-18
3.57583030282e-19
7.16805129734e-20
1.16099451312e-20
1.54058785373e-21
1.69108117848e-22
1.54753186555e-23
1.18928978192e-24
7.73784110283e-26
4.30559871595e-27
2.07865171309e-28
8.85703636919e-30
3.37391860687e-31
4.56709300888e-33
3.16675038093e-18
4.27005103292e-17
1.54676638939e-16
2.62164385188e-16
1.88398970403e-16
8.01454696966e-17
2.36478451486e-17
5.23749010093e-18
9.23373610756e-19
1.32818592383e-19
1.57933235271e-20
1.56821100521e-21
1.31153265834e-22
9.3157160583e-24
5.67311855743e-25
2.99811799853e-26
1.39974785382e-27
5.89629816293e-29
2.22063714239e-30
3.17120965653e-32
1.54851009352e-16
4.11203594791e-16
1.89214780551e-15
4.87572807918e-15
2.89745033008e-15
8.59756743145e-16
2.31281405953e-16
4.56567165353e-17
7.2692325891e-18
9.51213443662e-19
1.03699454014e-19
9.51855991325e-21
7.42259140071e-22
4.96077038237e-23
2.8707859259e-24
1.45828675251e-25
6.63571165406e-27
2.78400367447e-28
1.05091309763e-29
1.5052037175e-31
1.01713561401e-13
3.83578254017e-15
3.90490443056e-14
1.72972134207e-15
4.3275566802e-16
7.48225240657e-16
2.53790791778e-15
3.35081120132e-16
5.00950427674e-17
6.15312599687e-18
6.34275322366e-19
5.54428989968e-20
4.14518905972e-21
2.67363165685e-22
1.50323002473e-23
7.47462519845e-25
3.36051372407e-26
1.41286217775e-27
5.46652870378e-29
9.43397217773e-31
1.8757878126e-11
1.12141535883e-12
3.98603177238e-13
1.33084389174e-14
1.00909542493e-15
1.08004286868e-14
1.71352690103e-16
4.47535463609e-15
3.34273957716e-16
3.86948633819e-17
3.77444872658e-18
3.15496137807e-19
2.27629514692e-20
1.42819513542e-21
7.86769649666e-23
3.86035577797e-24
1.72606202364e-25
7.29765695939e-27
2.90085950823e-28
6.37171492297e-30
3.1478333777e-09
4.03425060638e-10
1.07264353096e-11
6.42339515007e-13
5.96980760596e-14
3.48160097939e-15
4.74310930893e-15
6.70031411708e-16
3.72227661307e-15
2.25598504693e-16
2.08622997069e-17
1.67525331862e-18
1.173545012e-19
7.21061173815e-21
3.91776463594e-22
1.90788607589e-23
8.51806043559e-25
3.6215406059e-26
1.4578636472e-27
3.54966282929e-29
4.39796887375e-07
4.16432451294e-07
8.36395091176e-09
1.47175791568e-10
3.91735455864e-12
1.16751816655e-13
7.74207748709e-15
5.38662980863e-15
9.71228074965e-17
1.25044302872e-15
1.02525604428e-16
8.00817475259e-18
5.51122796695e-19
3.35130838304e-20
1.81208733376e-21
8.81945295301e-23
3.94758287921e-24
1.68533294823e-25
6.75806780925e-27
1.68067242333e-28
3.06914621127e-05
5.17458593339e-17
8.73728640773e-07
1.05404307863e-08
1.16029887953e-10
2.50183172289e-12
5.32091774982e-14
1.56014652966e-15
2.21467125197e-14
4.6578342126e-16
4.17552736637e-16
3.30809972114e-17
2.28703257265e-18
1.40070593509e-19
7.63950170121e-21
3.75235288052e-22
1.69320477003e-23
7.25726507001e-25
2.86733690715e-26
6.91101609336e-28
2.75974014342e-05
4.03352767661e-07
8.58531761227e-07
1.11611139076e-08
2.31096021056e-10
7.60695516302e-12
2.59995514806e-13
7.44535553502e-15
1.01809081792e-15
4.84980895608e-16
1.84527024308e-15
1.1419324883e-16
8.19815384919e-18
5.17870238186e-19
2.89837261734e-20
1.45409672393e-21
6.66280448077e-23
2.87259896906e-24
1.1126188853e-25
2.51965226004e-27
1.95052700021e-05
9.78143051137e-07
5.54992940108e-07
6.54209440898e-09
2.74599938874e-10
1.39422155215e-11
7.37690558007e-13
2.80217363834e-14
1.87666981401e-14
2.05994201625e-14
5.23997551527e-15
3.30904331194e-16
2.5496495497e-17
1.6944269228e-18
9.88048378441e-20
5.11983251301e-21
2.39954860577e-22
1.04400289157e-23
3.95990207338e-25
8.30424275555e-27
1.31530778032e-05
1.52284027048e-06
1.28904473516e-06
1.3147986483e-08
5.637815113e-10
3.03041452544e-11
1.96638626415e-12
9.97173869737e-14
4.37544060508e-15
5.95855494089e-15
1.57827646282e-17
8.22240646288e-16
7.0409741918e-17
4.97818687255e-18
3.05327610268e-19
1.64655665151e-20
7.93682468285e-22
3.49576638056e-23
1.29978577278e-24
2.5122659752e-26
1.27614714122e-05
9.11543789936e-06
0
3.1357120491e-07
7.08794059059e-09
1.68845718326e-10
7.75381687329e-12
3.67278026481e-13
1.40562576158e-14
7.97096221672e-16
2.05852029897e-15
3.55893072099e-15
1.78617078712e-16
1.34190926845e-17
8.67442223768e-19
4.88335653477e-20
2.42827472498e-21
1.08528062928e-22
3.96268159107e-24
7.06370435794e-26
1.61923728937e-05
9.97125214918e-06
2.12611262937e-16
6.14357259869e-07
1.72024596782e-08
4.93069664078e-10
2.14898309769e-11
1.20996210324e-12
5.23273713804e-14
8.26976664106e-15
2.49233071024e-14
1.14928875973e-15
4.12966653565e-16
3.3511245539e-17
2.28754317753e-18
1.34701267917e-19
6.92390954246e-21
3.14650234057e-22
1.13076890011e-23
1.86653736151e-25
1.61815762114e-05
5.81879182578e-06
9.11503229319e-09
3.86886781292e-07
3.19271452227e-08
1.24510520003e-09
5.2525192566e-11
3.43356393751e-12
1.71324073934e-13
7.39348948032e-15
5.91041103442e-15
3.14759688609e-17
8.82216780971e-16
7.84047378303e-17
5.65392628647e-18
3.48517425306e-19
1.85420355899e-20
8.58299909206e-22
3.04371199137e-23
4.68300023417e-25
1.61827070596e-05
4.32659899889e-06
1.27479424127e-07
3.57490200543e-07
6.90099737145e-08
3.5876137004e-09
1.64801490609e-10
1.08647803687e-11
5.69687097603e-13
3.20288244102e-14
8.40956380649e-16
1.53827409022e-15
3.34501275571e-15
1.74289904764e-16
1.32369274655e-17
8.53207828705e-19
4.6994877563e-20
2.21891224215e-21
7.7858460494e-23
1.12568210822e-24
1.39595691674e-05
2.73703053743e-06
2.31961764537e-07
3.82465462928e-18
2.66051419162e-07
2.45948115526e-08
6.98820341543e-10
3.44792494525e-11
1.86011217082e-12
8.1348210817e-14
2.07853780585e-14
1.68353811375e-14
4.8405281382e-15
3.65468687214e-16
2.95117561202e-17
1.98794461782e-18
1.13406216686e-19
5.47006606033e-21
1.90485037141e-22
2.61168045508e-24
1.13831838871e-05
2.11346182806e-06
7.9008579099e-08
4.09101120583e-17
2.34693667318e-07
3.1803949076e-08
1.34073949805e-09
7.03697515739e-11
4.70741060545e-12
2.29184526933e-13
9.34897372611e-15
3.76505124383e-15
6.7647191634e-17
7.21192157107e-16
6.27609668118e-17
4.42274476234e-18
2.61647639904e-19
1.29188870376e-20
4.47991849332e-22
5.8815189878e-24
8.80901611207e-06
1.49118283e-06
4.67124643484e-08
2.90128735349e-09
8.96945177811e-08
1.87904800415e-08
1.41270280113e-09
9.93193970413e-11
9.20525995474e-12
5.77424266712e-13
2.53944886774e-14
4.79061588495e-15
1.17539538552e-16
1.66752634757e-15
1.27854492409e-16
9.42932587236e-18
5.79222699423e-19
2.93402363033e-20
1.01683266698e-21
1.2909886063e-23
6.64724985984e-06
1.06204165942e-06
4.09487120194e-08
7.12253464481e-09
5.24375725043e-08
1.3312240335e-08
1.14091441877e-09
1.19084469567e-10
1.57861842376e-11
1.24569719993e-12
6.94888279012e-14
2.99908140235e-15
1.81656769088e-15
4.66977315875e-15
2.49521531757e-16
1.93008932336e-17
1.2331410923e-18
6.42429234332e-20
2.23358381293e-21
2.7694060439e-23
5.12741613661e-06
8.54219764933e-07
4.44731679557e-08
2.85058112875e-08
3.98263117036e-08
2.91610099795e-08
1.81943844146e-09
1.58630891366e-10
2.76818237605e-11
2.69929692906e-12
1.73508349468e-13
7.95017266509e-15
1.22600164775e-14
6.5318977984e-15
4.5835508115e-16
3.78791894271e-17
2.52545768288e-18
1.35766971871e-19
4.75521399053e-21
5.8132106206e-23
4.16235799401e-06
7.26714874725e-07
4.95184828437e-08
1.61917009198e-07
2.6708077238e-18
9.54602603231e-08
3.21417811104e-08
1.25840140496e-09
7.01582894419e-11
6.38114395254e-12
3.98390289759e-13
4.50074629587e-14
2.21947894361e-14
6.36227591419e-16
8.01536891403e-16
7.1360298888e-17
4.98044901247e-18
2.77219951535e-19
9.82141980117e-21
1.19446768512e-22
3.36334760067e-06
5.85739692567e-07
5.10892433286e-08
1.55837880473e-07
1.1457398101e-16
3.49944975486e-08
2.82507526558e-08
2.07843697882e-09
1.05388390049e-10
1.24892868432e-11
9.25718169847e-13
4.59526961198e-14
6.56736045224e-15
5.14336741729e-17
1.34992554752e-15
1.29946219365e-16
9.49592478157e-18
5.48263721339e-19
1.97097026177e-20
2.40359555046e-22
2.5424564453e-06
4.29004823251e-07
4.40984181314e-08
7.81460921966e-08
2.14338483909e-09
9.98798674206e-09
9.79784185695e-09
1.19762439211e-09
1.03933484656e-10
1.90438658595e-11
1.85471127746e-12
1.07948304724e-13
5.06042021733e-15
3.8145422202e-16
3.34597817248e-15
2.30065474768e-16
1.75788770207e-17
1.05333009689e-18
3.85048549715e-20
4.73993135338e-22
1.79929943643e-06
3.02959350255e-07
3.6393857918e-08
4.28311121873e-08
4.25510783563e-09
1.15466539516e-08
6.23848489265e-09
7.13791647634e-10
8.63053346228e-11
2.45129581573e-11
3.35805437305e-12
2.39296287226e-13
1.03768243326e-14
2.88004203173e-15
6.77163384023e-15
3.90945374773e-16
3.16170801447e-17
1.96827028699e-18
7.33058972346e-20
9.16129912471e-22
1.22010249804e-06
2.15560157444e-07
3.08944724967e-08
2.73719941817e-08
8.5938805454e-09
1.19756695442e-16
4.97234838628e-08
1.35452336499e-08
4.84787279425e-10
4.11983559889e-11
5.95714636938e-12
4.95194264132e-13
2.51971666827e-14
1.33334747804e-14
7.42827920668e-15
6.38409897711e-16
5.51197618756e-17
3.57412114083e-18
1.35948672091e-19
1.73371252935e-21
8.16778509584e-07
1.59297722433e-07
2.81315621729e-08
2.03238277621e-08
3.83024586852e-08
2.43712294931e-18
2.2857527524e-08
2.2107940386e-08
1.26274510642e-09
6.06325903069e-11
9.70917913426e-12
9.31051850904e-13
6.70700945583e-14
2.32518424487e-14
7.98422349317e-16
1.00088189539e-15
9.29811241455e-17
6.29898970427e-18
2.45329206632e-19
3.20700112468e-21
5.48448905471e-07
1.22026003014e-07
2.68343190456e-08
1.67765270331e-08
6.57781818584e-08
1.17648833285e-16
8.91357408849e-09
1.45346922973e-08
1.18503186271e-09
6.38804307856e-11
1.33179029644e-11
1.59499754497e-12
1.13189469995e-13
8.81075911815e-15
1.94783742423e-16
1.51678300008e-15
1.52203548109e-16
1.07835584161e-17
4.30722280937e-19
5.79215091566e-21
3.67226555229e-07
9.39686084519e-08
2.49621056811e-08
1.43518193408e-08
7.43373799888e-08
4.17831191253e-12
8.74613637349e-09
4.21398349131e-09
5.98653860706e-10
5.00184711035e-11
1.53355222252e-11
2.47873968485e-12
2.05362731466e-13
1.23606197691e-14
4.08278131433e-16
2.85612666034e-15
2.42754405574e-16
1.79739081359e-17
7.36486285512e-19
1.02132833769e-20
2.43173540027e-07
7.13916593648e-08
2.21063659788e-08
1.24915179178e-08
7.36036181444e-08
2.65677920467e-09
5.96713938065e-08
2.32503758152e-09
3.28852117041e-10
4.29375196368e-11
1.52910568682e-11
3.52483267497e-12
3.6124825719e-13
2.1681935927e-14
1.46350637651e-15
5.60975330999e-15
3.74273231236e-16
2.92214633578e-17
1.22792780914e-18
1.75883865989e-20
1.595321231e-07
5.38679066415e-08
1.90592338679e-08
1.10492282716e-08
6.36988032466e-08
3.48810298318e-09
0
2.03407711244e-08
8.27782275432e-09
2.91263846357e-10
2.20731613406e-11
5.04380372541e-12
6.10046768284e-13
4.10026631502e-14
5.50051085521e-15
8.36020722456e-15
5.60602984355e-16
4.63232818962e-17
1.99633009611e-18
2.95702083465e-20
1.04451951557e-07
4.07338414931e-08
1.62704382096e-08
9.87984879574e-09
5.08498157811e-08
6.41580780725e-09
1.92351756265e-18
9.29409058705e-09
1.41625854907e-08
8.06328452213e-10
3.00569504112e-11
6.93804620341e-12
9.7438512582e-13
7.59938318545e-14
1.61904622466e-14
6.10826684363e-15
8.12444391987e-16
7.14121074204e-17
3.15916433876e-18
4.84459756201e-20
6.89258630625e-08
3.11015315742e-08
1.38791374964e-08
8.98441405213e-09
4.04750934116e-08
1.25778584965e-08
4.31957190842e-17
6.02065009324e-09
1.21841389082e-08
8.4117046376e-10
3.30630965053e-11
8.53563184046e-12
1.44455306175e-12
1.35300109066e-13
2.68862396837e-14
9.45972215551e-16
1.14058746283e-15
1.06960836088e-16
4.85878579418e-18
7.71935271888e-20
4.63089404553e-08
2.40928925019e-08
1.18808958396e-08
8.33447832959e-09
3.35176114272e-08
1.72304309584e-08
2.22992448078e-16
1.8970046258e-08
5.90447520521e-09
7.05576931897e-10
3.74420263048e-11
9.42038248951e-12
1.99781607987e-12
2.43442032354e-13
1.64558516404e-14
5.66689430808e-16
1.56108187328e-15
1.56038392215e-16
7.26637067971e-18
1.19572246598e-19
3.19358659328e-08
1.8919004e-08
1.01688500849e-08
7.82305266935e-09
2.875067889e-08
2.0758861006e-08
1.10394807776e-16
1.19019778848e-11
1.76864177837e-08
2.86099251081e-09
8.21863047312e-11
1.15515478478e-11
2.66299245938e-12
3.43735905645e-13
2.79202869006e-14
1.06730334092e-15
2.44626350839e-15
2.22664654153e-16
1.05919152551e-17
1.80310330684e-19
2.26657877994e-08
1.49427098247e-08
8.64582645601e-09
7.35113843738e-09
2.4896365192e-08
2.44036330519e-08
1.33410459592e-09
5.34054756645e-20
2.08476472352e-08
6.19496320242e-09
2.04271217554e-10
1.53843590556e-11
3.44998811909e-12
5.10390318831e-13
4.24367126187e-14
2.31572646436e-15
4.45126571878e-15
3.10816028131e-16
1.50951436126e-17
2.65351776799e-19
1.65889096636e-08
1.1860837577e-08
7.36984906168e-09
6.98200092818e-09
2.20280345215e-08
2.60369396055e-08
2.59467206125e-09
2.18084681628e-18
1.32689287219e-08
1.09478256369e-08
4.47426442009e-10
1.96617991024e-11
4.25752961636e-12
7.17229062611e-13
6.88087383217e-14
5.26329536394e-15
6.78572681461e-15
4.25096114716e-16
2.106800651e-17
3.81815885717e-19
1.25084349175e-08
9.46319905375e-09
6.35315188075e-09
6.74243610903e-09
2.00120784365e-08
2.56729966756e-08
2.82934762334e-09
7.12023880009e-18
9.55287688097e-09
1.43688806382e-08
6.49570863e-10
2.23074177406e-11
5.01901980746e-12
9.61580077743e-13
1.05964958117e-13
1.17564796667e-14
7.87377333776e-15
5.70374535961e-16
2.88035169532e-17
5.37696574374e-19
9.65516361496e-09
7.59658853004e-09
5.57190492579e-09
6.63931250821e-09
1.86685535463e-08
2.43111674985e-08
3.05320529269e-09
1.875638457e-17
2.34724960783e-08
1.48391952532e-08
8.71550052433e-10
2.94664659803e-11
5.6621354657e-12
1.23265045451e-12
1.56715818796e-13
2.30746443728e-14
4.01196574627e-15
7.48721248682e-16
3.85289761333e-17
7.40957172709e-19
7.55620373626e-09
6.15884825491e-09
5.00088621473e-09
6.67374687249e-09
1.77784550045e-08
2.24518814302e-08
3.23362516114e-09
7.25947708311e-17
7.93082212412e-11
2.63921377656e-08
2.38341006409e-09
5.76870119871e-11
7.0825579035e-12
1.55116495272e-12
2.23367568631e-13
3.58838592273e-14
1.46469767976e-15
9.67585826537e-16
5.05482019984e-17
1.00064938701e-18
5.96546018968e-09
5.08705857177e-09
4.62260978541e-09
6.84096173835e-09
1.71241331926e-08
2.03347950081e-08
3.34452787005e-09
1.53553807973e-16
7.54755477061e-15
2.69293328943e-08
4.37840310921e-09
1.20066232066e-10
9.36511752822e-12
1.92429010817e-12
3.10102468881e-13
3.66198278332e-14
1.57941408291e-15
1.2386819384e-15
6.52836545162e-17
1.32765956637e-18
4.78272033648e-09
4.33525134074e-09
4.42779341392e-09
7.13589377984e-09
1.65619118041e-08
1.81979992306e-08
3.3678172763e-09
2.95095570186e-16
0
2.0990935201e-08
7.03283457726e-09
2.23777249342e-10
1.15792251429e-11
2.33987791219e-12
4.12355427891e-13
4.59156894729e-14
2.58070468498e-15
1.57555591555e-15
8.32459028085e-17
1.73491496082e-18
3.9614445417e-09
3.86318980081e-09
4.41443148946e-09
7.54596722077e-09
1.59978082535e-08
1.60684921578e-08
3.31823767463e-09
9.3051516999e-14
2.54071526834e-19
1.39298358754e-08
1.04108389503e-08
3.81457313901e-10
1.4241523933e-11
2.71712896388e-12
5.24392265236e-13
6.56632771213e-14
4.23407354201e-15
2.02203146364e-15
1.05129042785e-16
2.23996261368e-18
3.45645140454e-09
3.63694844584e-09
4.58249524091e-09
8.04109245924e-09
1.53550097316e-08
1.39835905021e-08
3.2203613105e-09
1.14099016339e-10
8.50248748451e-19
9.70329053999e-09
1.39536629192e-08
5.8635792979e-10
1.89252385277e-11
3.09883748675e-12
6.48858031398e-13
8.94001947302e-14
6.72835947174e-15
3.15562718919e-15
1.32328075368e-16
2.8743631842e-18
3.22110857638e-09
3.63305841326e-09
4.92497961418e-09
8.56783613321e-09
1.45698137327e-08
1.19730155038e-08
3.06209496241e-09
9.15443709755e-10
2.56413053298e-19
7.67040973154e-10
2.01278992283e-08
1.2130710657e-09
3.37050393236e-11
3.80940293373e-12
7.88182834653e-13
1.19239220415e-13
1.0374322506e-14
4.61906054086e-15
1.66371580991e-16
3.67922798655e-18
3.21891650159e-09
3.83495710577e-09
5.41543155317e-09
9.04604063144e-09
1.35852948876e-08
1.00392582045e-08
2.80237137572e-09
1.37342385324e-09
3.41428747467e-18
1.05087606017e-11
2.15315639208e-08
2.2205222706e-09
6.00825598757e-11
4.94588522445e-12
9.55004834142e-13
1.57094834425e-13
1.55078439714e-14
6.39151073171e-15
2.08871958209e-16
4.70211327587e-18
3.42401020711e-09
4.21900849195e-09
5.99679359499e-09
9.37158955954e-09
1.23609559834e-08
8.20499493974e-09
2.46823917468e-09
1.51466137221e-09
7.34653455766e-18
7.1618824392e-14
1.75496488888e-08
3.39798868505e-09
1.05113904031e-10
6.48931160664e-12
1.1474925784e-12
2.01570177202e-13
2.24284756402e-14
8.42669992985e-15
2.61511095846e-16
5.99922368825e-18
3.8064414131e-09
4.73706819032e-09
6.5740781121e-09
9.42849386009e-09
1.08966910439e-08
6.52104201272e-09
2.07605718386e-09
1.5391302292e-09
2.64928609899e-18
6.29642057734e-16
9.82824008055e-09
5.04042661737e-09
1.82848465705e-10
8.76594055574e-12
1.36833344821e-12
2.52481397405e-13
3.13744789684e-14
1.06850235371e-14
3.26233350227e-16
7.65013504137e-18
4.31011599256e-09
5.29973487418e-09
7.01324807082e-09
9.1115107895e-09
9.23549905842e-09
5.01385330588e-09
1.73962755472e-09
1.50806403728e-09
1.26107795906e-17
2.55812457718e-17
4.67300351023e-09
6.52534569507e-09
3.26309516928e-10
1.29779649632e-11
1.68375894325e-12
3.1097614337e-13
4.26057174383e-14
1.31728749004e-14
4.05868710279e-16
9.78480367539e-18
4.83165521651e-09
5.76761577087e-09
7.15735398517e-09
8.36398651767e-09
7.4675783151e-09
3.71717972004e-09
1.46505956345e-09
1.44181963769e-09
1.11561812815e-17
7.34720978409e-18
1.63704223945e-09
7.52770063885e-09
5.85724604938e-10
2.13081572886e-11
2.17959977206e-12
3.82032803895e-13
5.65638783441e-14
1.59600894766e-14
5.05376725639e-16
1.2618657284e-17
5.21312272935e-09
5.96592282869e-09
6.87216622504e-09
7.21469057457e-09
5.71834713407e-09
2.65716717197e-09
1.2541770938e-09
1.34371320339e-09
1.40743945286e-17
0
3.25155730248e-10
7.64297251012e-09
1.01523628911e-09
3.8962271046e-11
2.97970069311e-12
4.78490215603e-13
7.40953219772e-14
1.91833394075e-14
6.31707762128e-16
1.64970840833e-17
5.27116738828e-09
5.73988116675e-09
6.11364908221e-09
5.79022699324e-09
4.12037319567e-09
1.84305721355e-09
1.10189849415e-09
1.20308096392e-09
1.95804771252e-17
0
4.84893685675e-11
6.56160414656e-09
1.57311562382e-09
7.07372212396e-11
4.35029908826e-12
6.16048546284e-13
9.66595354832e-14
2.30465365719e-14
7.94602901825e-16
2.19553649612e-17
4.8773109302e-09
5.04130742746e-09
4.97530811827e-09
4.28797474723e-09
2.78198196551e-09
1.26452574811e-09
9.98567783556e-10
9.72322806827e-10
1.81610567921e-17
0
8.69726821094e-12
4.74069980643e-09
2.13714714547e-09
1.25176655351e-10
6.61991362936e-12
8.15219756799e-13
1.26559510605e-13
2.78247841777e-14
1.00712067794e-15
2.97919747369e-17
4.05310761156e-09
3.9861617796e-09
3.67078347175e-09
2.91378979425e-09
1.76593949112e-09
8.99563030568e-10
9.34782432898e-10
4.43909333906e-10
1.495927743e-17
1.66006348017e-19
1.98329050895e-12
2.91000897911e-09
2.6116120776e-09
2.08159794517e-10
1.04431864089e-11
1.10377651443e-12
1.67145313628e-13
3.38515582078e-14
1.28596260614e-15
4.11493940353e-17
2.99044288119e-09
2.81507693594e-09
2.4430699463e-09
1.81488782861e-09
1.07660206868e-09
7.02808833553e-10
8.94308255515e-10
1.72037446527e-11
1.10717749924e-17
0
5.65793940071e-13
1.61517457901e-09
2.91597565672e-09
3.27432932689e-10
1.68546830465e-11
1.52563387742e-12
2.22811905288e-13
4.14779903358e-14
1.65171864051e-15
5.76084694997e-17
1.95074344164e-09
1.77106390632e-09
1.46640549233e-09
1.04807579532e-09
6.72481284072e-10
6.21927488881e-10
8.78478638891e-10
1.03815827573e-14
8.41066320937e-18
0
2.14385039662e-13
8.69855294358e-10
2.99922587193e-09
4.88354092818e-10
2.7328619115e-11
2.13760713415e-12
2.97532143312e-13
5.10118028428e-14
2.12961834453e-15
8.13490379006e-17
1.12592445842e-09
9.95359019255e-10
8.03241868921e-10
5.89707494092e-10
4.81137433441e-10
6.03679400097e-10
8.68434049056e-10
2.06981541378e-16
5.01246206136e-18
0
1.10075786163e-13
4.80534425829e-10
2.8313351822e-09
6.84931666725e-10
4.52728756765e-11
3.11075453163e-12
3.90205032155e-13
6.26939751637e-14
2.75094238235e-15
1.15442602298e-16
5.80478399846e-10
5.10382344749e-10
4.2471055764e-10
3.68102938071e-10
4.21526716132e-10
6.09345344464e-10
7.94738677119e-10
5.33658082277e-18
2.20464185199e-18
1.60354592708e-18
7.27941884849e-14
2.73343860596e-10
2.42759642552e-09
8.82611991825e-10
7.35773269187e-11
4.67946466298e-12
5.05216644101e-13
7.6787594156e-14
3.55572951358e-15
1.64448581488e-16
2.82304697467e-10
2.62563148917e-10
2.55367001566e-10
2.96800258962e-10
4.23818026764e-10
6.16396179513e-10
4.5882463826e-10
2.3959945978e-17
1.1081089539e-18
0
5.80020514529e-14
1.60359955517e-10
1.91184935056e-09
1.04473399812e-09
1.15359916168e-10
7.12377437146e-12
6.83156986714e-13
9.39326019221e-14
4.6008820455e-15
2.35603506563e-16
1.58237349886e-10
1.726760965e-10
2.13261091908e-10
3.02201054528e-10
4.45051830025e-10
6.13421054695e-10
4.23591101676e-14
2.39007259574e-17
5.69391395295e-19
0
5.88226185077e-14
9.97095564919e-11
1.43048166502e-09
1.14235082953e-09
1.72001133735e-10
1.09565109562e-11
9.22788135951e-13
1.15301237937e-13
5.96944353848e-15
3.4088228671e-16
1.35389805108e-10
1.69669191317e-10
2.33558621054e-10
3.36252586354e-10
4.72390274501e-10
5.00727440914e-10
1.25182072224e-16
9.13128373098e-18
2.40076225866e-18
0
7.39629716422e-14
6.69960587777e-11
1.04394346582e-09
1.15379641991e-09
2.3833114603e-10
1.66911576869e-11
1.24360719243e-12
1.42613711049e-13
7.78327869248e-15
5.00433715801e-16
1.62142978219e-10
2.0568220472e-10
2.75897466721e-10
3.74048156494e-10
4.68235503019e-10
3.07839266691e-13
4.5484252717e-17
3.17677339147e-18
4.05257858264e-18
1.34908094316e-19
1.06798853296e-13
4.85988661676e-11
7.5541440792e-10
1.08772334688e-09
3.08631817961e-10
2.51719596773e-11
1.67958118725e-12
1.77342595101e-13
1.02227256343e-14
7.47890670088e-16
2.11624944543e-10
2.56862694471e-10
3.22268348578e-10
3.86206311478e-10
8.58291161968e-11
2.23396452256e-17
1.33206885338e-17
0
0
1.2511789994e-18
1.60671841404e-13
3.73897947324e-11
5.45955564175e-10
9.71436323675e-10
3.68682756709e-10
3.72633965714e-11
2.28044246801e-12
2.19676633606e-13
1.35256179804e-14
1.1414984942e-15
2.64058412217e-10
2.95375092649e-10
3.05489755768e-10
3.34491686983e-11
0
2.59349105531e-17
2.99953294247e-18
1.41797250576e-17
0
2.86338228668e-17
2.07852297821e-13
2.77007988173e-11
3.86767185958e-10
8.39800000634e-10
4.10160098048e-10
5.40013407108e-11
3.03873114755e-12
2.64125314226e-13
1.78049586284e-14
1.77155185046e-15
1.72933965975e-31
7.3683966652e-33
7.78566052225e-31
5.78634787304e-32
4.02396469492e-30
3.99451668724e-31
1.68338336206e-29
1.51996315124e-30
5.84334856976e-29
4.47710583709e-30
1.79014176392e-28
1.16420093379e-29
5.01931321361e-28
2.78767568023e-29
1.31172166554e-27
6.25881544391e-29
3.23846804157e-27
1.33349661251e-28
7.64845254696e-27
2.72394592624e-28
1.74634487347e-26
5.37853806122e-28
3.88617828954e-26
1.14256420339e-27
8.47701768972e-26
2.33972724081e-27
1.81966886764e-25
4.95464539708e-27
3.85375393126e-25
1.04169833757e-26
8.06272835338e-25
2.17434413868e-26
1.66648772467e-24
4.50229277216e-26
3.40040166065e-24
9.23497964515e-26
6.84504067863e-24
1.87401090692e-25
1.35854175379e-23
3.76079703383e-25
2.65608500114e-23
7.44423516454e-25
5.10693339313e-23
1.44858107154e-24
9.63461623404e-23
2.76438466047e-24
1.78030930986e-22
5.16387232444e-24
3.21948323142e-22
9.43513218756e-24
5.69368586818e-22
1.68709572273e-23
9.83811364662e-22
2.94463024824e-23
1.6572592342e-21
5.00549456021e-23
2.71542118256e-21
8.26859189396e-23
4.32414221252e-21
1.32637607501e-22
6.69988311736e-21
2.06867288572e-22
1.01242321975e-20
3.14502565507e-22
1.4951526565e-20
4.67243729251e-22
2.16081549192e-20
6.79728002173e-22
3.05694558359e-20
9.69800777449e-22
4.24011150771e-20
1.36224167481e-21
5.78083592915e-20
1.89708007443e-21
7.76975007358e-20
2.64891135858e-21
1.03393140703e-19
3.77602339538e-21
1.37255273584e-19
5.63851921587e-21
1.82983925945e-19
9.02954000572e-21
2.46245358584e-19
1.56662617408e-20
3.36268028047e-19
2.91985128902e-20
4.69378567089e-19
5.71783562196e-20
6.75390551733e-19
1.14693652101e-19
1.007858628e-18
2.30689206539e-19
1.55970419362e-18
4.58265321999e-19
2.48600199132e-18
8.90353885545e-19
4.03512220721e-18
1.68217574681e-18
6.59000787674e-18
3.08274634804e-18
1.07244446172e-17
5.48001451655e-18
1.72922487543e-17
9.47284750861e-18
2.75837219644e-17
1.59969728991e-17
4.36354574518e-17
2.65741876854e-17
6.88190536578e-17
4.37813708765e-17
1.08823994364e-16
7.19949593463e-17
1.7350375605e-16
1.18875805405e-16
2.79284039587e-16
1.97005681938e-16
4.54405660937e-16
3.26471995169e-16
7.97582905959e-16
6.15859613293e-16
)
;

boundaryField
{
    inletfuel
    {
        type            calculated;
        value           uniform 0;
    }
    inletair
    {
        type            calculated;
        value           uniform 0;
    }
    outlet
    {
        type            calculated;
        value           uniform 0;
    }
    axis
    {
        type            empty;
    }
    leftside
    {