/*--------------------------------*- C++ -*----------------------------------*\
  =========                 |
  \\      /  F ield         | OpenFOAM: The Open Source CFD Toolbox
   \\    /   O peration     | Website:  https://openfoam.org
    \\  /    A nd           | Version:  dev
     \\/     M anipulation  |
\*---------------------------------------------------------------------------*/
FoamFile
{
    version     2.0;
    format      ascii;
    class       volScalarField;
    location    "0.3";
    object      edc::R_CH2O;
}
// * * * * * * * * * * * * * * * * * * * * * * * * * * * * * * * * * * * * * //

dimensions      [1 -3 -1 0 0 0 0];

internalField   nonuniform List<scalar> 
1629
(
2.55184833727e-25
2.80703228058e-25
3.20245591162e-25
4.24090184798e-21
9.32445736052e-21
3.9952685727e-20
2.43684711291e-17
1.28787740817e-16
2.24096984545e-15
7.25817085153e-14
9.27011982381e-13
4.95582376607e-11
1.65150105966e-11
1.98235570117e-10
5.13061629038e-09
2.19418145604e-09
2.39246893128e-08
4.16560966901e-07
1.90574809842e-07
1.83282922397e-06
2.34954507938e-05
9.86939577647e-06
8.52869315984e-05
0.00107089941108
6.54035296378e-05
0.000328880860147
0.00209145137407
0.000212447752962
0.000674097192383
0.00260579161665
0.000467614534213
0.00105216707915
0.0028733950485
0.000824024801361
0.00146027352892
0.00315734706436
0.00128304030014
0.00194851995212
0.0036345914507
0.00184453047514
0.00253084890518
0.00425236080468
0.00250265810733
0.00320931532836
0.00499007681637
0.00321892920908
0.00392588071561
0.005694703876
0.00391733996661
0.00458908667243
0.00623732886757
0.00450254199352
0.00510333423065
0.00653281607598
0.00488969871371
0.0053919921219
0.00655337195231
0.00504211210853
0.00543994853596
0.00635659662154
0.00499275811897
0.00531488836369
0.00606426117459
0.00481133529453
0.00508985394599
0.00574637035808
0.00454909482144
0.00479815361393
0.00538185366237
0.00422709318961
0.00444580637576
0.00495065992788
0.00386456606489
0.00405252720059
0.0044832200462
0.00349850819865
0.00366313529701
0.00404188660733
0.0031706001605
0.00332581988116
0.00367735157387
0.00291146981475
0.00306047985502
0.00339211009977
0.00271103580375
0.00284950760575
0.00315290950847
0.00254126457026
0.00266409601365
0.00292554055615
0.00237248249712
0.00247637950784
0.00269184589651
0.00219355877833
0.00227881882153
0.00245467371701
0.00201218679766
0.00208265845767
0.00223043369088
0.00183992408143
0.00190038591945
0.00203115790308
0.00168872099678
0.00174463560396
0.00186507444166
0.00156896613661
0.00162103980418
0.00173395808378
0.00148157271385
0.00153031756019
0.00163565916671
0.0014188601915
0.00146288646438
0.00155704669238
0.00135933890527
0.0013963822573
0.00147354966223
0.00127238746153
0.00129943657054
0.00135333232645
0.00113136958076
0.00114670314856
0.00117505634543
0.000929840074268
0.000934288001405
0.000939120626266
0.000679632613431
0.000674793517567
0.000659892018947
0.00039390869645
0.000381209016309
0.000349640780858
7.90520571224e-05
5.96577976805e-05
1.39760034404e-05
-0.000257232142201
-0.000281633633367
-0.00033755465845
-0.00058834293021
-0.000614728476565
-0.000674006446961
-0.000857918987965
-0.000882063481673
-0.000935326273172
-0.00100008334288
-0.00101828799943
-0.00105770289582
-0.000993195048875
-0.00100450873732
-0.00102852564561
-0.0008888803268
-0.000895112670526
-0.000908143773217
-0.000762799479493
-0.000766261547385
-0.00077347360389
-0.000648739805638
-0.000650681158339
-0.00065473359722
-0.000539127042395
-0.000540001028036
-0.000541800685423
-0.000424458634846
-0.000424570909082
-0.000424754872084
-0.000311828132813
-0.000311555826744
-0.000310877704436
-0.000215917403565
-0.000215494838201
-0.000214498637972
-0.000145458181388
-0.000144941038225
-0.000143712897269
-9.94485190447e-05
-9.87286383922e-05
-9.70456478453e-05
-7.0442873937e-05
-6.93902764732e-05
-6.69713955006e-05
-4.83110162329e-05
-4.68049150502e-05
-4.34042764825e-05
-2.27459115683e-05
-2.06965938252e-05
-1.61427199197e-05
1.61918691505e-05
1.87331205146e-05
2.42919358261e-05
1.25075934717e-09
5.96216902757e-08
3.4737762295e-06
0.000163459041859
0.010265130106
0.00901732671129
0.00747159846375
0.00648305484311
0.00621773855298
0.00673684327451
0.00748989889128
0.00837958065966
0.0089568551641
0.00911824068101
0.00889468253014
0.00837680921776
0.00775537540584
0.00722874297179
0.00678514765134
0.00629654372489
0.00572879592171
0.00514278693511
0.00462328024281
0.00420879092607
0.00387616225231
0.0035748011275
0.00327559507659
0.00297707366939
0.00269087144862
0.00243326178932
0.0022147771854
0.00203603331818
0.00189424418762
0.00178264380231
0.00168506777866
0.00157341947861
0.00141808718692
0.00120352887943
0.000935613134522
0.000629919097817
0.000297307618641
-5.70671248856e-05
-0.000421400729385
-0.000760346175722
-0.00101077765445
-0.00111195423808
-0.00106065722658
-0.000925228593293
-0.000782900502254
-0.000660029820095
-0.000544045962592
-0.000424804261001
-0.000309734866699
-0.000212899194724
-0.000141756460424
-9.43989229623e-05
-6.32644789659e-05
-3.83384610844e-05
-9.52212566075e-06
3.21116227726e-05
1.48197077317e-15
2.13361918165e-15
3.53329948654e-15
4.96131345936e-15
3.8440875503e-15
1.86994106535e-15
6.37573690669e-16
1.62575934654e-16
3.2586656695e-17
5.27809527606e-18
7.00457465817e-19
7.69029759718e-20
7.03939025555e-21
5.41169999951e-22
3.52251151336e-23
1.96108012772e-24
9.47367393843e-26
4.04239150614e-27
1.59105481072e-28
1.15592702095e-29
3.51916877906e-14
4.79658373179e-14
8.42537584723e-14
1.22681702944e-13
8.56925347879e-14
3.62750174665e-14
1.06915753826e-14
2.36703340256e-15
4.17247907372e-16
6.0016705742e-17
7.13718665945e-18
7.08816321924e-19
5.92947598637e-20
4.2130244363e-21
2.56669895752e-22
1.35712800298e-23
6.34004294121e-25
2.67613520661e-26
1.06346825579e-27
8.0647976488e-29
1.90677219413e-12
7.16578137911e-13
1.28073748156e-12
1.68482663075e-12
1.05042494637e-12
4.04187744465e-13
1.04193594481e-13
2.05565296927e-14
3.27219916837e-15
4.28166237087e-16
4.66812691264e-17
4.28553489049e-18
3.342627223e-19
2.23465823034e-20
1.29367754491e-21
6.57471725557e-23
2.99358569246e-24
1.25918669977e-25
5.08518393811e-27
3.84058572392e-28
4.75632360583e-10
5.30306109303e-11
2.69664987993e-11
2.57043039446e-11
1.24761193033e-11
4.03210789129e-12
7.80231900134e-13
1.51599489434e-13
2.24665785389e-14
2.75928604916e-15
2.84445282109e-16
2.48672269583e-17
1.85959594433e-18
1.19977584242e-19
6.74812040949e-21
3.35703831902e-22
1.5103102403e-23
6.3710927623e-25
2.68057592296e-26
2.38617075488e-27
7.46626083926e-08
4.33657213416e-09
1.23838304331e-09
4.06353623815e-10
1.32531933134e-10
3.55723402425e-11
7.5518516616e-12
9.53585186071e-13
1.50667289127e-13
1.72858250294e-14
1.68616681468e-15
1.40961073786e-16
1.01724891156e-17
6.38429386296e-19
3.51832789625e-20
1.72717242887e-21
7.7287014102e-23
3.28187339099e-24
1.4465494137e-25
1.62844732182e-26
1.52333149348e-05
4.66334938737e-06
1.8732596452e-07
1.02422017518e-08
1.55110229445e-09
3.15219903716e-10
5.70188458249e-11
8.52960125123e-12
8.23005155676e-13
1.00383494489e-13
9.28310524681e-15
7.45537166562e-16
5.22378743721e-17
3.21063153249e-18
1.74513636971e-19
8.50311935385e-21
3.79995726427e-22
1.62457908599e-23
7.42297038779e-25
9.25666657488e-26
0.00188952729398
0.00406338720385
9.11121538945e-05
1.89999019325e-06
3.16625996384e-08
2.55747447223e-09
3.79598347068e-10
5.05832984137e-11
5.86089327064e-12
5.05260035208e-13
4.54363157969e-14
3.54948741688e-15
2.44332800906e-16
1.48623511527e-17
8.03963431946e-19
3.91517028902e-20
1.75445818395e-21
7.54255907053e-23
3.52529097954e-24
4.47760176569e-25
0.193553633386
-0.0209403311971
0.0107719392191
-1.03920838954e-05
1.64384384031e-07
8.45094220232e-09
1.62885060896e-09
2.24120851464e-10
2.35091334773e-11
2.42389320478e-12
1.87277208053e-13
1.46023240802e-14
1.00976632265e-15
6.18644231037e-17
3.37562462804e-18
1.65905663267e-19
7.49680916209e-21
3.24105222987e-22
1.53586537836e-23
1.87350142825e-24
0.0761913717747
0.617775976272
0.000183145645915
-6.97815593336e-05
-1.04141984249e-06
-1.25599683272e-08
1.99265406306e-09
5.04057694335e-10
6.89577763338e-11
7.469967723e-12
5.80730832091e-13
5.0196537912e-14
3.60460073663e-15
2.27776256789e-16
1.27539541986e-17
6.40275433474e-19
2.93871168691e-20
1.28052602436e-21
6.1281899975e-23
6.91246597498e-24
0.0410021640192
0.142006507635
0.00155888564653
-3.54271891008e-05
-2.12528089461e-06
-6.63093350281e-08
-7.36849236578e-10
7.05937622426e-10
1.39392884741e-10
1.67069556042e-11
1.54232271756e-12
1.46163109673e-13
1.11631806444e-14
7.42123189011e-16
4.32951861328e-17
2.24498352758e-18
1.05423240828e-19
4.64683070545e-21
2.24448555463e-22
2.29423006003e-23
0.0243175706258
0.0517736956605
0.00380970888598
-6.39699914255e-05
-6.39819334111e-06
-3.0990139365e-07
-1.47936009954e-08
3.51313908159e-10
2.32109533655e-10
3.71462186481e-11
4.41282258196e-12
3.74216569337e-13
3.06947867764e-14
2.17097824591e-15
1.33217939921e-16
7.18924900369e-18
3.47321096247e-19
1.55415330925e-20
7.5837745042e-22
6.96186282526e-23
0.0205455273551
0.334163661539
-0.0715562501685
0.000546953165617
-0.000203677861322
-4.23837759886e-06
-1.1963477129e-07
-3.62313708223e-09
2.74693611601e-10
7.1895518905e-11
9.40036894434e-12
7.72672920463e-13
7.75162799216e-14
5.82626314029e-15
3.76815896072e-16
2.12293493834e-17
1.05834857973e-18
4.82116570503e-20
2.37994953573e-21
1.95729110579e-22
0.0231463337073
0.439916145371
-0.0646976873211
0.00815755437034
-0.000344558702918
-1.26000550587e-05
-3.2636293742e-07
-1.60174158309e-08
-5.43874202255e-12
1.17418914469e-10
1.75106348702e-11
2.12717044337e-12
1.81293673518e-13
1.44840391322e-14
9.89252937226e-16
5.82994202261e-17
3.00538862357e-18
1.39722049879e-19
6.98857216811e-21
5.15874385194e-22
0.023909178684
0.238007644732
-0.0752939542053
0.0203666010065
7.55601387265e-05
-6.87347083847e-06
-4.20131907338e-07
-3.38898459945e-08
-1.34268750035e-09
1.48224194278e-10
3.44552995852e-11
4.46688928789e-12
3.9784958683e-13
3.37292861275e-14
2.43385569151e-15
1.5016066131e-16
8.01497933061e-18
3.81133127659e-19
1.93483499639e-20
1.28841364251e-21
0.0249001594475
0.190392296821
-0.0797705622937
0.0525814851662
0.0010258510307
2.53266799263e-05
-2.63239934196e-08
-5.1523370969e-08
-4.0616601265e-09
9.41149752924e-11
5.74349901321e-11
8.46984546185e-12
7.29405269845e-13
7.46091711852e-14
5.67141110095e-15
3.65924578209e-16
2.02290544821e-17
9.85728922934e-19
5.08751049678e-20
3.07810192766e-21
0.0229779257077
0.101432310316
0.0780600529731
-0.0570955661541
0.00224129623106
-5.34047125675e-05
-9.16062376718e-07
-8.90397626074e-08
-9.63417706476e-09
-1.16100824371e-10
8.76261135671e-11
1.47271371473e-11
1.57509947749e-12
1.57567312317e-13
1.25836732253e-14
8.48625177314e-16
4.86111271431e-17
2.43205942141e-18
1.27854565173e-19
7.08884517723e-21
0.0199922954417
0.0659922375157
0.0506613293496
-0.0304141258545
0.00291765581932
-0.000245840984069
-5.88348561153e-06
-1.54207116526e-07
-1.87977824682e-08
-9.34702858019e-10
1.07212086075e-10
2.71224291118e-11
3.56486325289e-12
3.17164904608e-13
2.66282069899e-14
1.87909669448e-15
1.11684213262e-16
5.75121499765e-18
3.08642880274e-19
1.58307421019e-20
0.0167708526716
0.0414068177904
0.025722085524
-0.0311215296928
0.00636732219258
-5.37981026446e-05
-3.04205381362e-06
-9.88422932109e-08
-2.58397354042e-08
-1.90154946857e-09
8.66290779883e-11
4.23689773522e-11
6.3695746434e-12
5.9086211217e-13
5.39614070835e-14
3.9869637767e-15
2.46207678689e-16
1.30839663348e-17
7.18504742384e-19
3.44315814892e-20
0.0138758322204
0.0279875860295
0.0217478705288
-0.0364607644535
0.0188126763612
0.000206757948907
5.13864865801e-06
1.15528378637e-07
-2.2242093293e-08
-3.84660689772e-09
-3.75331078993e-11
5.74755033144e-11
1.05357088379e-11
9.80107906598e-13
1.04844849636e-13
8.12058163696e-15
5.21983201912e-16
2.87097081294e-17
1.61747205896e-18
7.31470027818e-20
0.0118308405202
0.0227571136666
0.0245519785728
-0.0457440267941
0.0429168645081
0.000872640558477
2.54803506013e-05
7.85214581681e-07
3.89760375906e-09
-5.62745577098e-09
-3.64832366579e-10
7.28633338037e-11
1.58208352228e-11
1.80615533158e-12
1.94783802826e-13
1.58560412225e-14
1.06460453849e-15
6.08293914854e-17
3.52636034025e-18
1.51996138096e-19
0.0107486552296
0.0208239519608
0.0274284229516
-0.0171169712436
-0.0392271909956
0.00355948586439
-4.14262479771e-05
-5.81687507038e-07
-7.20486859867e-09
-1.01571247376e-08
-1.08028762904e-09
5.15463016111e-11
2.29096365666e-11
3.6290513624e-12
3.46057250852e-13
2.97129018625e-14
2.09096935431e-15
1.24580692275e-16
7.45308963015e-18
3.09102569249e-19
0.0099918431427
0.0182087387275
0.0256711580262
-0.00109866557622
-0.0151962563824
0.00535709693191
-0.000130622414645
-4.20656691094e-06
3.1971318736e-08
-1.3316770664e-08
-2.22802585264e-09
-3.95409439777e-11
3.20689541686e-11
5.83363307483e-12
5.95035486079e-13
5.37981222525e-14
3.97066208887e-15
2.47233270507e-16
1.52949740234e-17
6.1556554923e-19
0.00901414652065
0.0144565694451
0.0185036071179
-0.00483520534713
-0.0146515842355
0.00770198816229
3.63047401222e-06
3.82968471135e-07
1.54274451086e-07
-5.67750706756e-09
-3.33752837366e-09
-1.66410060995e-10
3.60450667588e-11
8.87919312049e-12
9.22162407091e-13
9.46316212209e-14
7.3206158327e-15
4.76803643054e-16
3.05357818056e-17
1.20144197306e-18
0.0078730834943
0.0112331965928
0.0132159774867
-0.00371698161934
-0.0187404148691
0.0161167135767
0.000236532660076
6.91120896661e-06
3.79483906267e-07
1.65679749523e-08
-3.56466820789e-09
-3.87242302882e-10
2.62070610484e-11
1.24091352517e-11
1.3932856178e-12
1.61672821685e-13
1.31117451964e-14
8.94680383381e-16
5.93740432367e-17
2.29875777569e-18
0.00678614630665
0.008972071461
0.0102513067457
-0.0022652845984
-0.0159526101747
-0.0191229860716
0.00193270006319
7.2385809829e-06
4.96021813458e-07
3.12761337621e-08
-3.97922630193e-09
-7.40758408661e-10
2.69061188695e-11
1.54485687847e-11
2.31219295046e-12
2.66383803372e-13
2.2758482389e-14
1.63194457994e-15
1.12400102413e-16
4.30784424777e-18
0.00590361272866
0.00756315304496
0.00890951578316
-0.000822006027557
-0.0129059603606
-0.00529505036071
0.00293766322884
-8.73246188826e-05
-2.09223083794e-06
4.02814246626e-08
-4.33425081472e-09
-1.51342303066e-09
-1.90584854426e-11
1.69362989407e-11
3.94842944576e-12
4.21840697998e-13
3.82089971404e-14
2.89002328503e-15
2.0695862465e-16
7.89451182657e-18
0.00524764089335
0.00671184341351
0.00834663607159
0.000304594429841
-0.0109541322133
-0.00484260316024
0.00451066686218
-0.000103776931979
-3.28787799311e-06
4.61436563926e-08
-2.19238138922e-09
-2.04099777964e-09
-2.08881164789e-10
1.52156991917e-11
5.44578750153e-12
6.45416097557e-13
6.22000166737e-14
4.97281922892e-15
3.70610761953e-16
1.41337280897e-17
0.00473083768032
0.00606007275146
0.00771352579871
0.000710265069824
-0.00920978936513
-0.00699791238551
0.00779368963293
-4.80514641021e-05
-1.92442630686e-06
6.07856514563e-08
4.26527266097e-09
-2.16718649876e-09
-4.46941287346e-10
2.6659615946e-12
7.35255876783e-12
9.17947906581e-13
9.85128871361e-14
8.33213789389e-15
6.46163293174e-16
2.4720754807e-17
0.00427094042118
0.00544949454522
0.00684270496145
0.000724119694902
-0.00710669494276
-0.00992267041323
0.0157867690788
0.00010990874144
2.31457004102e-06
1.21841951717e-07
1.54890450153e-08
-1.19320235166e-09
-4.78325027536e-10
-2.58936702194e-11
8.8319079622e-12
1.21856759208e-12
1.52177501106e-13
1.36168772999e-14
1.09824737887e-15
4.22593045231e-17
0.00384258369816
0.00488576434375
0.00596399734805
0.000651024659881
-0.00623646432171
-0.00716029612579
-0.0154047600577
0.000751850477963
-3.01190241739e-05
-5.88251723484e-07
7.20174854557e-09
-1.44581968865e-09
-6.45775969834e-10
-7.2149150138e-11
8.69990541722e-12
1.61637673246e-12
2.2825539426e-13
2.16933488563e-14
1.819825683e-15
7.05833561095e-17
0.00344584117361
0.00438234780877
0.00516920257443
0.000608552064193
-0.00646358360963
-0.00620781174536
-0.00364941517056
0.00179597726408
-0.000103518678652
-3.15020892876e-06
-8.59798501931e-09
-2.3610690311e-09
-1.00334936844e-09
-9.88760334402e-11
5.12115455538e-12
2.31838504985e-12
3.2994435608e-13
3.3588862386e-14
2.93494165041e-15
1.14988017932e-16
0.00309328625232
0.00395338354643
0.00449141556411
0.000539510281529
-0.00658970899559
-0.00602809995267
-0.00261392624586
0.00319425246633
-0.000133394206393
-4.63121232104e-06
-4.0645401094e-08
-3.09996781321e-09
-1.36110693942e-09
-8.89787023939e-11
-4.29367053545e-12
3.03804616176e-12
4.58175836907e-13
5.04671210159e-14
4.60014534864e-15
1.82376336605e-16
0.00279878071052
0.00360537480175
0.00392293631158
0.00038838976136
-0.00632673944348
-0.00619461503564
-0.00346523256127
0.00599403841506
-0.000139228706187
-6.02154732649e-06
-1.08432144917e-07
-3.75768172347e-09
-1.60035024927e-09
-2.43546347428e-10
-2.12438234209e-11
3.06801387795e-12
6.11235610007e-13
7.36791082033e-14
7.01044920888e-15
2.8150954021e-16
0.00256248820922
0.00331194548533
0.00340404958372
0.000138595908917
-0.00609846744266
-0.00585101392987
-0.00236264973462
-0.00748449260947
0.000262824712327
-7.01840154749e-06
-1.76434143713e-07
-5.34115580261e-09
-1.81554714625e-09
-5.53591367651e-10
-4.99128418458e-11
3.89637819156e-12
7.59619625463e-13
1.04784160396e-13
1.04103924742e-14
4.23493963568e-16
0.00236850245988
0.00302351825632
0.00287217781647
-0.000187272044536
-0.00593014013428
-0.00538529628203
-0.00164738614247
-0.00148025715548
0.000391911324044
-3.00994958924e-05
-6.83238642423e-07
-1.2606662685e-08
-2.16367546123e-09
-6.91334838776e-10
-9.307906137e-11
4.42967202553e-12
8.43376322067e-13
1.45517834661e-13
1.51042972208e-14
6.22401867156e-16
0.00220437679735
0.00272579620724
0.00235090369237
-0.000536243676695
-0.00568647155986
-0.00514999684514
-0.00107189862099
-0.0009319268422
0.000885298979664
-7.21969420558e-05
-1.87579256222e-06
-1.95034119243e-08
-2.35693381308e-09
-7.5549751734e-10
-1.48416965117e-10
2.57985052382e-12
8.56717799622e-13
1.96783858743e-13
2.14343409859e-14
8.95236143718e-16
0.00205675942581
0.00241417662676
0.00185117300473
-0.000898207409763
-0.00540124258178
-0.00494718979474
-0.00119387157731
-0.00112774799055
0.00163454059952
-0.000110448461846
-3.22988763945e-06
-3.07948780468e-08
-2.60437197705e-09
-8.40778449942e-10
-2.01122499331e-10
-2.64474309163e-12
7.86060368227e-13
2.57439830674e-13
2.97332390692e-14
1.26130773572e-15
0.00190395668284
0.00208035843245
0.00136597707461
-0.00127526738787
-0.00511036859009
-0.00470873508336
-0.00121467732229
-0.00147589423381
0.00207963531012
-0.000123070626644
-4.80043307566e-06
-6.15454248298e-08
-2.92084600274e-09
-9.02532999784e-10
-2.12726423293e-10
-1.24947390321e-11
6.54409129663e-13
3.22242900404e-13
4.02192230283e-14
1.74022897872e-15
0.00171876856669
0.00171806585252
0.00088603947144
-0.00166092248983
-0.00481676409194
-0.00441577905453
-0.00109320905412
-0.000927023287269
-0.00321267834676
4.24558364435e-05
-7.29767165868e-06
-8.40981590005e-08
-3.20713302206e-09
-8.88098888442e-10
-1.96924101358e-10
-2.83272417205e-11
-7.72971642354e-14
3.8398107299e-13
5.30677057007e-14
2.35398867729e-15
0.00148160031277
0.00132841655351
0.000406234524474
-0.00203716469278
-0.00450706907641
-0.00408055690588
-0.000992272782634
-0.000780659921203
-0.000638565078171
0.000124700244286
-1.88319086686e-05
-2.558628891e-07
-4.54228032829e-09
-8.75227993514e-10
-2.02396732761e-10
-5.06472335305e-11
-1.76382221709e-12
4.31557969663e-13
6.83495892614e-14
3.12730885992e-15
0.00119184304066
0.000918599510889
-7.4451311599e-05
-0.00238200103648
-0.00417224889265
-0.00372960638119
-0.000896883208816
-0.000774710042304
-0.000328639841012
0.000284092883492
-3.72612221939e-05
-6.24551906301e-07
-4.09665546606e-09
-7.40030639881e-10
-2.60786071952e-10
-7.00895560421e-11
-3.85593554748e-12
4.47910570326e-13
8.58484132232e-14
4.08539343599e-15
0.000863030842437
0.000495634975687
-0.00055287049939
-0.00266642384527
-0.00380625318226
-0.00336644976626
-0.000781978045248
-0.000788664074022
-0.000330116861977
0.000434415494405
-5.69044660587e-05
-1.12190803624e-06
9.08540023051e-10
-1.66079415855e-10
-2.27374617468e-10
-8.84848554296e-11
-2.81497038702e-12
4.07557783157e-13
1.04954607724e-13
5.25432917343e-15
0.000508644684817
6.32988750509e-05
-0.00101807870385
-0.00285273708326
-0.00341262562761
-0.00300194937131
-0.000648999806991
-0.000751126719218
-0.000341653618428
0.000229645030733
-6.05167125577e-05
-1.40421705408e-06
9.97387802018e-09
8.1314953624e-10
-1.21129188156e-10
-1.02030603323e-10
-1.43076034075e-12
2.2044665999e-13
1.2499699614e-13
6.67129697238e-15
0.000135263344031
-0.000373423078652
-0.00144406380762
-0.00290116227827
-0.00300629571765
-0.0026555114879
-0.000583934975036
-0.000376766437151
-0.000241049563019
-0.000755007554034
-5.24427090748e-06
-1.42253238734e-06
4.24814228284e-08
2.65651946582e-09
6.00393296803e-11
-9.79459006736e-11
4.3871399151e-13
-1.1513048065e-13
1.44492764017e-13
8.35812641482e-15
-0.000251627474572
-0.000797844441476
-0.00178427683637
-0.00278672509368
-0.00260951944366
-0.00232758088391
-0.000525410818066
-0.000147283937336
-0.000230976351183
-0.000321075745311
2.03384299748e-05
-4.32001580426e-06
8.55001423292e-08
5.47957186074e-09
3.69294262238e-10
-6.98994494697e-11
3.08330087822e-12
-6.2534856784e-13
1.61207326486e-13
1.02880488435e-14
-0.000633377553819
-0.0011700999409
-0.00197838251838
-0.00252070392238
-0.00224473191809
-0.00200886086531
-0.000432300765719
-4.75104773857e-05
-0.000261163740649
-0.000149484046711
4.81983412796e-05
-1.00508588133e-05
1.0587579225e-07
9.64728345415e-09
8.0458865379e-10
-1.79371322765e-11
6.9740525471e-12
-1.30216649119e-12
1.72723597885e-13
1.23518392938e-14
-0.000964358521427
-0.0014266296318
-0.0019804829642
-0.00215904808954
-0.00192485268875
-0.00168999843268
-0.000325436110389
2.39137446259e-05
-0.000287890916494
-0.000133328550943
7.67347436375e-05
-2.11887389245e-05
7.24231549083e-08
1.59551297195e-08
1.39211799712e-09
6.22491333735e-11
1.27575664713e-11
-2.07581820829e-12
1.76928126133e-13
1.4336182265e-14
-0.00117688412963
-0.00150791139359
-0.00180037994254
-0.00178394543911
-0.00165023884281
-0.00138161782933
-0.000201221908511
7.11993391008e-05
-0.000303208598421
-0.000133816193819
7.24330552128e-05
-2.95121633963e-05
-2.44190224948e-07
2.41269816802e-08
2.07682990421e-09
1.6990515617e-10
2.12036506058e-11
-2.79089079439e-12
1.71687398858e-13
1.59130067324e-14
-0.00122161159621
-0.00140975463836
-0.00151776949737
-0.00146247048845
-0.00140737667121
-0.00108691631213
-7.87357770195e-05
9.10350640849e-05
-0.000305757604408
-0.000116439233905
-1.90317162274e-05
-2.75955608209e-05
-1.0463354814e-06
3.57838310012e-08
2.97602321011e-09
3.02388609415e-10
3.33546656305e-11
-3.19888285288e-12
1.62422505567e-13
1.66395572082e-14
-0.0011192247769
-0.0012056983658
-0.00123609106102
-0.00121474938273
-0.00117782371358
-0.000809984382244
3.47644599621e-05
7.94136600404e-05
-0.000294721363198
-7.38493372216e-05
-0.000130691983998
-1.33915173058e-05
-2.67985224175e-06
4.64283294805e-08
4.43069539009e-09
4.57304332201e-10
5.06891073723e-11
-2.98627395472e-12
1.60007835065e-13
1.59955162417e-14
-0.00095378954723
-0.000994140985519
-0.00101314917473
-0.00101808762781
-0.000949919869529
-0.000556207694778
0.000136695665953
2.61611576907e-05
-0.000270315828758
-4.51105518638e-05
-0.000100364507315
8.27552457491e-07
-5.91417190902e-06
2.76828781558e-08
6.42729646384e-09
6.42664437887e-10
7.49126647542e-11
-1.83957818165e-12
1.82862196352e-13
1.34965470007e-14
-0.000798735507897
-0.000823673778187
-0.000842322620852
-0.000838339809615
-0.000723343220332
-0.000329710316482
0.00023301749276
-9.77396748766e-05
-0.000225985620718
-3.12249099493e-05
-6.48972540743e-05
1.31428164564e-05
-1.0114141141e-05
-8.982644919e-08
9.07637696837e-09
8.82050367906e-10
1.07801346606e-10
4.94887624326e-13
2.5652951707e-13
8.89398824892e-15
-0.000669309181317
-0.000683946820257
-0.000690011602634
-0.000657594132392
-0.000505557483489
-0.000128352877836
0.000343073942248
-0.000362811868069
-0.000143067729194
-2.11815078223e-05
-5.31776863434e-05
2.16501190423e-05
-1.35240780652e-05
-3.6684615417e-07
1.19338002699e-08
1.21805532253e-09
1.51522691615e-10
4.21898153849e-12
4.12479681165e-13
2.43781987885e-15
-0.00054758297186
-0.000550255489228
-0.000538114301847
-0.000479874361445
-0.000310580043336
3.04651518031e-05
0.000395896687768
-0.000459652529255
-7.5901421958e-05
-1.480695097e-05
-4.812665488e-05
2.39924671345e-05
-1.45980373962e-05
-8.45703844697e-07
1.3921931035e-08
1.71535144332e-09
2.08859557069e-10
9.59136972342e-12
6.87927465177e-13
-4.8127214227e-15
-0.000423715331816
-0.000416629784571
-0.000391160977073
-0.000319404979507
-0.0001511642163
0.000128699006621
0.000374535800036
-0.000373194083983
-5.98112919579e-05
-1.33048747199e-05
-4.35518600331e-05
1.95175127135e-05
-1.3154440369e-05
-1.5509704775e-06
1.03573215554e-08
2.51233353639e-09
2.84545852832e-10
1.72213496829e-11
1.1291352431e-12
-1.06029001843e-14
-0.000306186855389
-0.000294052668725
-0.000262501770432
-0.000186880995278
-3.15399503582e-05
0.000172469315504
0.000322664608883
-0.000329629999974
-5.60685806936e-05
-1.32101393756e-05
-3.77319631304e-05
1.05519219442e-05
-9.82622704779e-06
-2.49625572395e-06
-8.44708574299e-09
3.64702756967e-09
3.80110775018e-10
2.81876665496e-11
1.79574517355e-12
-1.09820657914e-14
-0.000208490143282
-0.000194368183346
-0.000160329755624
-8.45957530052e-05
5.19748200734e-05
0.000187056890375
0.000201808768452
-0.000280075271275
-5.17263198907e-05
-1.28770097806e-05
-3.10756702199e-05
1.28818706086e-06
-5.64632431896e-06
-3.47555059042e-06
-5.87531435963e-08
5.07246779733e-09
5.20042866224e-10
4.40649672474e-11
2.76028226445e-12
4.21617845232e-16
-0.000136663862506
-0.000120481984892
-8.30798225477e-05
-6.03569555335e-06
0.000114084600633
0.000228808387589
-0.000133014924474
-0.000182700121154
-3.81003057256e-05
-1.09394724094e-05
-2.45698570969e-05
-5.43296333366e-06
-1.9914693849e-06
-4.2983807053e-06
-1.62305751004e-07
6.59801892815e-09
7.44028666757e-10
6.62567490645e-11
4.1175894771e-12
3.35984610966e-14
-8.78923491419e-05
-6.80956131794e-05
-2.61056184198e-05
4.93578956077e-05
0.000143860948894
0.000244878115237
-0.000332142837443
-9.30660829763e-05
-2.25025299426e-05
-8.17359353485e-06
-1.9174579941e-05
-8.46205795721e-06
5.41223678169e-07
-4.7699524186e-06
-3.37998295919e-07
7.00055585877e-09
1.02870463591e-09
9.64370720468e-11
5.9820332051e-12
1.03917685778e-13
-5.46325110463e-05
-3.04466489387e-05
1.44982108493e-05
8.15742755543e-05
0.000157616662957
7.45532570698e-05
-0.000215690570936
-6.02527004499e-05
-1.54564444898e-05
-6.4969852124e-06
-1.53240011223e-05
-9.13135993553e-06
2.17788179998e-06
-4.69332892584e-06
-5.6690131062e-07
4.66409093532e-09
1.40306819763e-09
1.36515629458e-10
8.49229996721e-12
2.34677299446e-13
-2.70283177849e-05
1.81142383856e-06
4.86114416451e-05
0.000112951761334
0.000170279601887
-0.000280868319766
-0.000101989317871
-3.20610676404e-05
-9.47707940229e-06
-5.07601707269e-06
-1.26158858531e-05
-8.73928148908e-06
2.985669536e-06
-4.28112326189e-06
-8.29284980564e-07
-3.60774983493e-09
1.89218341022e-09
1.87232588354e-10
1.18106872695e-11
4.60138670414e-13
4.91523445201e-06
3.92400745842e-05
9.15941678735e-05
0.000143888931372
-0.000209390549406
-0.000124264987826
-4.76827949808e-05
-1.63239207816e-05
-5.60496763424e-06
-4.0177609126e-06
-1.06283244652e-05
-7.91715070706e-06
3.13309779811e-06
-3.73416056711e-06
-1.069219567e-06
-2.47021273402e-08
2.57429034163e-09
2.48139273128e-10
1.60959837967e-11
8.28268301727e-13
4.84103347912e-05
7.98380005878e-05
8.31476947048e-05
-0.000190619089793
-0.000111956678468
-5.14919868728e-05
-2.12166272749e-05
-7.99151771057e-06
-3.28443067836e-06
-3.17655923367e-06
-8.76858213189e-06
-7.51412197288e-06
3.01266770052e-06
-3.2494476098e-06
-1.29117145382e-06
-5.45415198474e-08
3.3882441358e-09
3.16333979846e-10
2.1288583704e-11
1.38998520482e-12
1.20466222908e-27
2.15935058726e-28
7.0414098646e-27
1.05735625578e-27
3.59433228702e-26
5.29735115544e-27
1.4765590592e-25
1.87831130636e-26
4.98644211579e-25
5.49230092799e-26
1.47910662686e-24
1.45858474294e-25
4.01213432346e-24
3.63199796288e-25
1.01582637561e-23
8.6001279982e-25
2.43602772217e-23
1.95714281675e-24
5.60523041915e-23
4.32462564424e-24
1.25076016706e-22
9.36259830893e-24
2.72828510652e-22
1.97479967725e-23
5.84981731335e-22
4.1040156052e-23
1.23743671137e-21
8.48039419838e-23
2.58837676704e-21
1.74404229602e-22
5.35924349783e-21
3.57236768687e-22
1.09814524144e-20
7.28876322616e-22
2.22479474692e-20
1.48060699421e-21
4.45272539646e-20
2.99342362437e-21
8.79788991709e-20
6.02661482653e-21
1.7144252458e-19
1.20607755851e-20
3.28888920143e-19
2.39295615623e-20
6.1965057901e-19
4.69897949617e-20
1.14456612046e-18
9.12110631472e-20
2.07106401534e-18
1.74948679355e-19
3.66948935579e-18
3.31788246708e-19
6.36104503588e-18
6.20752877389e-19
1.07679036093e-17
1.14365837718e-18
1.77662616044e-17
2.07169194462e-18
2.85595088402e-17
3.68799932456e-18
4.47936780389e-17
6.45521075273e-18
6.87189972207e-17
1.11180437763e-17
1.03337926118e-16
1.88488970839e-17
1.5253818351e-16
3.14508195694e-17
2.21131986514e-16
5.1628853647e-17
3.15256784539e-16
8.33693377017e-17
4.42692220642e-16
1.32378694797e-16
6.12918840704e-16
2.06508772317e-16
8.37337559936e-16
3.16084990537e-16
1.13014207362e-15
4.73891418466e-16
1.50442400993e-15
6.93666202392e-16
1.96452858789e-15
9.85800885912e-16
2.49449203347e-15
1.34819909384e-15
3.04242933866e-15
1.74946928476e-15
3.49864496484e-15
2.10056742158e-15
3.66627006861e-15
2.21133744294e-15
3.23146502828e-15
1.73292650077e-15
1.75140152571e-15
9.74068765522e-17
-1.31594280456e-15
-3.52082468905e-15
-6.51586394508e-15
-1.01863151143e-14
-1.42106322772e-14
-2.1083154234e-14
-2.4281647254e-14
-3.72574999159e-14
-3.56947103032e-14
-5.91835061397e-14
-4.5893390196e-14
-8.61619306397e-14
-4.98929627477e-14
-1.15490422898e-13
-3.89920912297e-14
-1.41399306356e-13
8.5504279755e-16
-1.54647534431e-13
9.05804356486e-14
-1.43478033191e-13
2.57618633126e-13
-9.97691741227e-14
5.53874067076e-13