/*--------------------------------*- C++ -*----------------------------------*\
  =========                 |
  \\      /  F ield         | OpenFOAM: The Open Source CFD Toolbox
   \\    /   O peration     | Website:  https://openfoam.org
    \\  /    A nd           | Version:  dev
     \\/     M anipulation  |
\*---------------------------------------------------------------------------*/
FoamFile
{
    version     2.0;
    format      ascii;
    class       volScalarField;
    location    "0.3";
    object      edc::R_CH3O;
}
// * * * * * * * * * * * * * * * * * * * * * * * * * * * * * * * * * * * * * //

dimensions      [1 -3 -1 0 0 0 0];

internalField   nonuniform List<scalar> 
1629
(
-2.6371963987e-25
-2.90088592488e-25
-3.30951343161e-25
-4.38260067628e-21
-9.63588842651e-21
-4.12862398994e-20
-2.51828123975e-17
-1.33089597536e-16
-2.31576761935e-15
-7.50072474388e-14
-9.57981108417e-13
-5.12118441339e-11
-1.70571251143e-11
-2.0473020783e-10
-5.2974384349e-09
-2.25020059321e-09
-2.44717233753e-08
-4.23946111515e-07
-1.81962021199e-07
-1.68542249725e-06
-1.9948965977e-05
-5.89866989794e-06
-3.55109743059e-05
-0.000157785787968
-2.5787129197e-05
-7.97840533096e-05
-6.70103878413e-05
-5.66957846542e-05
-0.000101419295364
7.43685033583e-06
-8.57340867978e-05
-0.000108705935026
-5.17445525589e-05
-0.000113123098854
-0.000125264024835
-9.66913115866e-05
-0.000149609905125
-0.000138842808976
4.1766235042e-05
-0.000221661766114
-0.000196609590561
5.89858867385e-05
-0.000361414661033
-0.000323117513561
-2.19733214024e-05
-0.00059545588973
-0.000564277529874
-0.000319423475712
-0.000912541418164
-0.000894914188714
-0.000740052443638
-0.00125693938267
-0.00124364574272
-0.00116258715707
-0.00154426950423
-0.00152572674174
-0.00145406736199
-0.00169367421666
-0.00165138263721
-0.00152343083035
-0.00166655929788
-0.00158350457159
-0.00136885750844
-0.00149340658468
-0.00137989066565
-0.00111164080397
-0.00124785404658
-0.0011296670186
-0.000872348874486
-0.000989237828457
-0.000885075358061
-0.000673560878127
-0.000746405293271
-0.000662120370829
-0.000503033840107
-0.000533232654333
-0.000468992614228
-0.000358128940871
-0.000359270052842
-0.000315136689804
-0.000246297487745
-0.000232960732051
-0.00020679906122
-0.000169968931041
-0.000149690548548
-0.000136457682335
-0.000121420127744
-9.75554551952e-05
-9.1948241636e-05
-8.56941377089e-05
-6.29611762803e-05
-6.05200374776e-05
-5.70365978972e-05
-3.90573540268e-05
-3.77654427617e-05
-3.54527354155e-05
-2.3187600036e-05
-2.23973928998e-05
-2.08554620998e-05
-1.32575390684e-05
-1.27591911298e-05
-1.17849080773e-05
-7.41195025395e-06
-7.12249148776e-06
-6.53440005087e-06
-4.12766880218e-06
-3.95529328948e-06
-3.6065684627e-06
-2.3179152405e-06
-2.21510779492e-06
-2.00723225229e-06
-1.32924728501e-06
-1.26555040111e-06
-1.13809323334e-06
-7.88041067974e-07
-7.4938762192e-07
-6.72646892521e-07
-4.94760518402e-07
-4.72446920517e-07
-4.29014786078e-07
-3.36375551515e-07
-3.24298980616e-07
-3.02761087983e-07
-2.46334256455e-07
-2.40895368857e-07
-2.31988150637e-07
-1.89852494287e-07
-1.88178720436e-07
-1.86478547259e-07
-1.52488839803e-07
-1.53145575258e-07
-1.55865381971e-07
-1.28797301414e-07
-1.30910080166e-07
-1.36345796103e-07
-1.14866322476e-07
-1.1769032772e-07
-1.24279823914e-07
-1.06447512523e-07
-1.09207567838e-07
-1.15289619074e-07
-9.94188542217e-08
-1.01390706698e-07
-1.05446111697e-07
-9.07159948658e-08
-9.14270306247e-08
-9.25868818953e-08
-7.98417341481e-08
-7.92770854171e-08
-7.76543518878e-08
-6.96341429415e-08
-6.82437042991e-08
-6.49421657519e-08
-6.42681923469e-08
-6.27200314806e-08
-5.92269150322e-08
-6.47499410977e-08
-6.35276513279e-08
-6.08548579335e-08
-6.63841457733e-08
-6.55902657363e-08
-6.38907757669e-08
-6.27419236838e-08
-6.22544914175e-08
-6.12257078936e-08
-5.21441126598e-08
-5.18576483723e-08
-5.1254837666e-08
-3.82104031172e-08
-3.80681483621e-08
-3.77721622236e-08
-2.53858721687e-08
-2.53418535234e-08
-2.52511118674e-08
-1.60275513639e-08
-1.60310942012e-08
-1.60362609046e-08
-1.03683783454e-08
-1.03750877349e-08
-1.038116377e-08
-7.17498968625e-09
-7.14019162347e-09
-7.05169283209e-09
-4.63758316593e-09
-4.51950526214e-09
-4.24747023929e-09
-7.06991658731e-10
-4.63258351361e-10
8.49319187758e-11
-1.29228723961e-09
-6.14940256436e-08
-3.49159582538e-06
-0.000114203931842
0.00133406094745
0.00168039190841
0.000929388313671
4.31360272657e-05
0.000167316254397
0.00124061592051
0.00127579474377
0.00132898029343
0.000620417245628
-0.000179705803685
-0.000849880117002
-0.00122460473437
-0.00123471460732
-0.00095824305277
-0.00067026460661
-0.000505345080167
-0.000411544357707
-0.000336101140269
-0.000265687772329
-0.000203864352551
-0.000156778682683
-0.000117743621072
-8.2840122946e-05
-5.39474053122e-05
-3.28552145699e-05
-1.89763484274e-05
-1.05721080932e-05
-5.79555050102e-06
-3.16716678842e-06
-1.74103361842e-06
-9.77219218944e-07
-5.77570590723e-07
-3.7859128662e-07
-2.79905594438e-07
-2.24255968488e-07
-1.87236449682e-07
-1.61920485937e-07
-1.45520510267e-07
-1.34291668812e-07
-1.2381384139e-07
-1.10518663617e-07
-9.32392492685e-08
-7.44045039807e-08
-5.9599946119e-08
-5.39665063945e-08
-5.70003690393e-08
-6.14985536934e-08
-5.98043272229e-08
-5.04359686477e-08
-3.73780750639e-08
-2.51316274999e-08
-1.60354120406e-08
-1.03679047452e-08
-6.89526432564e-09
-3.82711072085e-09
8.91551741612e-10
-1.5235584189e-15
-2.18583600444e-15
-3.61916075122e-15
-5.09090862791e-15
-3.94862598114e-15
-1.92191775871e-15
-6.55516350444e-16
-1.67180921026e-16
-3.35117824864e-17
-5.42776498423e-18
-7.20237510332e-19
-7.90595799581e-20
-7.2349022934e-21
-5.56015661273e-22
-3.61768347077e-23
-2.01310648633e-24
-9.71965029302e-26
-4.14476018858e-27
-1.6303483672e-28
-1.18883884966e-29
-3.60970172827e-14
-4.90785564544e-14
-8.63025781942e-14
-1.25967019644e-13
-8.80904715995e-14
-3.73136688426e-14
-1.10017167819e-14
-2.43618282519e-15
-4.29471191399e-16
-6.17737831704e-17
-7.34540210812e-18
-7.29368208573e-19
-6.09991957725e-20
-4.33278570104e-21
-2.63866511576e-22
-1.39455787827e-23
-6.51154884094e-25
-2.74693792771e-26
-1.09107127458e-27
-8.30204554715e-29
-1.95553452942e-12
-7.27936968101e-13
-1.31065777115e-12
-1.72977117747e-12
-1.08009930065e-12
-4.15998371407e-13
-1.07280013293e-13
-2.11697489843e-14
-3.37006164325e-15
-4.40962779536e-16
-4.80718170823e-17
-4.41247611664e-18
-3.44086555677e-19
-2.29967654025e-20
-1.33085460982e-21
-6.76087256794e-23
-3.07687342191e-24
-1.29352086938e-25
-5.22170928594e-27
-3.95624153298e-28
-4.90624754433e-10
-5.44895322418e-11
-2.75942661136e-11
-2.63207632653e-11
-1.28259933684e-11
-4.1530977678e-12
-8.03475485601e-13
-1.56180640128e-13
-2.31466233433e-14
-2.84270656339e-15
-2.93014564402e-16
-2.56122078958e-17
-1.91488624316e-18
-1.23510804442e-19
-6.9445330585e-21
-3.4533883564e-22
-1.5529445284e-23
-6.54752774188e-25
-2.75388767541e-26
-2.45880715192e-27
-7.61107737394e-08
-4.27021722526e-09
-1.23327476806e-09
-4.04804768798e-10
-1.35564634592e-10
-3.66411789729e-11
-7.78606285073e-12
-9.82419189498e-13
-1.5528265688e-13
-1.7813874067e-14
-1.73745037897e-15
-1.45221991202e-16
-1.04775483624e-17
-6.57388666952e-19
-3.62158854702e-20
-1.77716068247e-21
-7.94874320397e-23
-3.37356472931e-24
-1.48657086322e-25
-1.67849668359e-26
-1.38388269963e-05
-2.60841772577e-06
-1.50683645104e-07
-8.43507678123e-09
-1.52274587076e-09
-3.25589672129e-10
-5.89653986824e-11
-8.80302784313e-12
-8.48318171569e-13
-1.03481799639e-13
-9.56788494264e-15
-7.68246208963e-16
-5.38153519844e-17
-3.30658937052e-18
-1.79666147062e-19
-8.75060492861e-21
-3.90872623833e-22
-1.67020700677e-23
-7.62999605571e-25
-9.54248949434e-26
-0.000577293962801
0.000307769032034
-2.97090157533e-05
-9.87060630475e-07
-2.63916653818e-08
-2.80422161675e-09
-4.02262020165e-10
-5.24908899161e-11
-6.0514509964e-12
-5.21030556074e-13
-4.68410074658e-14
-3.65828318774e-15
-2.5175075038e-16
-1.53086162893e-17
-8.27796511276e-19
-4.02952284077e-20
-1.80483087661e-21
-7.75497830171e-23
-3.62415806614e-24
-4.61614999067e-25
0.0601874940993
-0.00182549264898
0.00053375916574
-5.56641836412e-05
-8.30467801344e-07
-2.27239841391e-08
-2.09002361799e-09
-2.39587349587e-10
-2.43832263008e-11
-2.5020237402e-12
-1.93108322222e-13
-1.50517411696e-14
-1.04051785649e-15
-6.37264805572e-17
-3.47587537345e-18
-1.70757456608e-19
-7.71220997836e-21
-3.33235792199e-22
-1.57907542878e-23
-1.93147495514e-24
0.0112959655842
-0.00250339540543
7.66302815434e-05
-3.91048048983e-05
-1.38831862542e-06
-4.42598741678e-08
-4.43009373086e-09
-5.90433191342e-10
-7.25321185446e-11
-7.72550419443e-12
-5.9889699042e-13
-5.17430561792e-14
-3.71437096617e-15
-2.34628953256e-16
-1.31323983449e-17
-6.5897476308e-19
-3.02299169687e-20
-1.31651842245e-21
-6.3007176794e-23
-7.12597770297e-24
-0.0037538052398
-0.00204428819669
-0.000152637596288
-1.77462118678e-05
-1.18806727231e-06
-5.79897357172e-08
-6.76465572905e-09
-1.0651717928e-09
-1.52894416651e-10
-1.73948492115e-11
-1.59189380704e-12
-1.50666475602e-13
-1.15021201688e-14
-7.64374406246e-16
-4.45751429351e-17
-2.31028033349e-18
-1.08432773754e-19
-4.77678422686e-21
-2.30755560838e-22
-2.36484242915e-23
-0.00599689202213
-0.00164524978429
0.000327885034488
-4.68332509425e-05
-2.28535725602e-06
-9.37272330419e-08
-1.03838832681e-08
-1.75794106278e-09
-2.88755813779e-10
-3.94223596849e-11
-4.56702329858e-12
-3.85812084291e-13
-3.16223431716e-14
-2.23568915995e-15
-1.37131733484e-16
-7.39694551178e-18
-3.57163139581e-19
-1.59727548795e-20
-7.79592641613e-22
-7.17500368912e-23
0.000908481134776
0.00457025564443
-0.000646396914561
0.000124877129691
-1.65045221651e-05
-5.60887164094e-07
-2.65153026299e-08
-3.40684812149e-09
-5.5054166253e-10
-8.05284486764e-11
-9.80538756009e-12
-7.97152302026e-13
-7.98516019983e-14
-5.99866262587e-15
-3.8779442066e-16
-2.18370699598e-17
-1.08803809828e-18
-4.95350449706e-20
-2.44605756348e-21
-2.01678850824e-22
0.00903274006648
0.000692260080858
-0.000568415142127
0.000157424949759
-2.73925858781e-05
-1.63987108548e-06
-5.5912462028e-08
-6.1683167797e-09
-9.94958960665e-10
-1.53551228386e-10
-1.8702961389e-11
-2.20116780499e-12
-1.86771955167e-13
-1.49089505223e-14
-1.01777225594e-15
-5.99489225588e-17
-3.08861509791e-18
-1.43504787435e-19
-7.18080373529e-21
-5.31413251213e-22
0.00584290235836
-0.00407357232643
-0.000496896273133
-6.03849057525e-05
-1.17978621747e-05
-2.13077417865e-06
-9.14909568551e-08
-9.76467100768e-09
-1.63113478066e-09
-2.71942982586e-10
-3.85475006624e-11
-4.65168684652e-12
-4.1013142394e-13
-3.47102665843e-14
-2.5031248352e-15
-1.54348238712e-16
-8.23339999581e-18
-3.91276217583e-19
-1.98738401685e-20
-1.32678335683e-21
0.00564355088844
-0.00334651173357
-0.000427918360849
-1.36850584878e-05
1.72422952126e-06
-3.18858572206e-06
-1.88555750473e-07
-1.65613151038e-08
-2.66348524318e-09
-4.63456502591e-10
-7.08781008482e-11
-8.95112278183e-12
-7.53254668537e-13
-7.67679358963e-14
-5.83043301212e-15
-3.75952656155e-16
-2.07696697667e-17
-1.01141940055e-18
-5.22350210005e-20
-3.16849899934e-21
0.00200441048577
-0.00354648541491
-0.000322220044633
-9.01754502701e-05
9.05141575451e-05
-2.5114109416e-06
-8.06742815577e-07
-4.01955221771e-08
-5.00655931663e-09
-8.24235047042e-10
-1.2726542251e-10
-1.60752072959e-11
-1.63430984928e-12
-1.62146026936e-13
-1.29306184771e-14
-8.71399167491e-16
-4.98799734049e-17
-2.49386447385e-18
-1.31205927959e-19
-7.29352232115e-21
4.73594849641e-05
-0.00269354664105
-0.000372284558762
-2.52749445234e-05
1.3061495911e-05
-5.00903138274e-06
-1.49315894986e-06
-7.07763481677e-08
-8.30801030428e-09
-1.37680992612e-09
-2.23047065363e-10
-3.111742044e-11
-3.72678013658e-12
-3.26627388272e-13
-2.73497053327e-14
-1.9282895172e-15
-1.14518301988e-16
-5.89301582744e-18
-3.1654327229e-19
-1.62785101008e-20
-0.00107506196891
-0.0022628295132
-0.00031342623028
-1.2481316251e-05
-4.21249821733e-05
-8.91830405612e-06
-1.460592709e-06
-8.93135600856e-08
-1.13377694799e-08
-2.02808847029e-09
-3.55677798409e-10
-5.33579214988e-11
-6.75373405927e-12
-6.09716414654e-13
-5.54043981398e-14
-4.08847221159e-15
-2.52253011129e-16
-1.33952618151e-17
-7.36381621629e-19
-3.53815577577e-20
-0.00137535480651
-0.00174992318507
-0.000252170961892
-8.71059801092e-06
-1.5341572969e-05
-5.29780141485e-06
-1.11644594107e-06
-1.01116140382e-07
-1.37547135905e-08
-2.6996891119e-09
-5.2112741757e-10
-8.56305100909e-11
-1.14941532736e-11
-1.01641874326e-12
-1.07644806534e-13
-8.32127898872e-15
-5.34325392329e-16
-2.93649701381e-17
-1.65638699144e-18
-7.51056277814e-20
-0.00107439080836
-0.00124988946883
-0.000200410789905
-4.81601992702e-06
-4.37228924813e-06
4.41793060895e-06
-1.38756543036e-06
-1.49226605046e-07
-1.71204539846e-08
-3.47789894412e-09
-7.2770955311e-10
-1.30044654152e-10
-1.82449835632e-11
-1.89098277291e-12
-2.00097827279e-13
-1.62359462885e-14
-1.08870567468e-15
-6.21518871797e-17
-3.60789968563e-18
-1.55921612659e-19
-0.000602944714417
-0.000924541920607
-0.000176920742905
3.05299941998e-05
-1.18711135633e-05
2.57195242268e-05
8.72464461437e-06
-7.33247524992e-07
-4.14882336952e-08
-5.62511578577e-09
-1.08470720205e-09
-1.96247317255e-10
-2.90979270747e-11
-3.84935664849e-12
-3.5612222188e-13
-3.04038898034e-14
-2.13597769049e-15
-1.27138348129e-16
-7.61748637304e-18
-3.16742625615e-19
-0.000425345672985
-0.000739293213269
-0.000153786502279
1.63540675446e-05
-7.62014569086e-06
-1.16595467871e-05
4.81444426086e-07
-1.0974570087e-06
-7.38498378439e-08
-8.56798684502e-09
-1.59331275567e-09
-2.97265557244e-10
-4.74097179163e-11
-6.34794977504e-12
-6.14833394339e-13
-5.50251046667e-14
-4.05143404463e-15
-2.5197959102e-16
-1.56139818e-17
-6.29987049909e-19
-0.000482615029171
-0.000593787210894
-0.000121874450306
-9.01467631279e-06
-4.59243062264e-06
-7.80367760854e-06
-6.15415238782e-06
-1.05678528769e-06
-9.16718916627e-08
-1.08543599467e-08
-2.12234137356e-09
-4.21839127688e-10
-7.17218386934e-11
-1.00381758395e-11
-9.61076259153e-13
-9.68050010412e-14
-7.46097754975e-15
-4.85278817349e-16
-3.11320924554e-17
-1.22780762894e-18
-0.000507873563787
-0.000441163384414
-8.97677149452e-05
-8.81771462452e-06
-2.77208824781e-06
-5.05366538508e-07
-2.52255832162e-06
-7.75337595739e-07
-1.03949599766e-07
-1.24366736432e-08
-2.58338003496e-09
-5.60550595232e-10
-1.02886210922e-10
-1.51878280645e-11
-1.47748769024e-12
-1.6558839391e-13
-1.33491204033e-14
-9.09253038368e-16
-6.04474442672e-17
-2.34531698695e-18
-0.000446229726523
-0.000305535649823
-6.36740947118e-05
-6.63958428546e-06
-9.91941465022e-07
-2.54730581352e-06
1.33431083061e-05
2.8308032041e-06
-3.11596758076e-07
-2.13657120977e-08
-3.45019295587e-09
-7.43174023113e-10
-1.4358879766e-10
-2.19575370481e-11
-2.51547845299e-12
-2.73672087888e-13
-2.31504581503e-14
-1.65599713135e-15
-1.14254726968e-16
-4.38681210122e-18
-0.000339377303436
-0.000201914070829
-4.45874051695e-05
-6.87849616617e-06
5.42557950932e-06
-1.77689965651e-06
-3.60421246369e-06
3.39367313382e-06
-5.50105003033e-07
-3.873287701e-08
-4.86144053667e-09
-9.91793291121e-10
-1.96396343804e-10
-3.15284044019e-11
-4.44080821477e-12
-4.361042673e-13
-3.88474718408e-14
-2.92794946749e-15
-2.10015624748e-16
-8.02191134853e-18
-0.000236748477523
-0.000130072337615
-3.10611408158e-05
-8.12219529506e-06
9.94986521075e-06
-2.38277445996e-06
-3.42482732001e-06
-1.24011897623e-06
-6.14678141367e-07
-5.25492695772e-08
-6.19469116345e-09
-1.2589114721e-09
-2.61259336242e-10
-4.56471735341e-11
-6.55310967972e-12
-6.75059430883e-13
-6.32554224527e-14
-5.02995716127e-15
-3.75384072247e-16
-1.43264172902e-17
-0.000159275799106
-8.32225549054e-05
-2.18159537921e-05
-8.76642360172e-06
1.00206608113e-05
-3.08640313101e-06
-5.60980146886e-07
-3.12331562178e-06
-5.06185556603e-07
-5.62042565019e-08
-6.96476000657e-09
-1.47693923639e-09
-3.29335768281e-10
-6.15893944709e-11
-9.310255479e-12
-9.81073315496e-13
-1.00351259306e-13
-8.41504345225e-15
-6.53164324736e-16
-2.49874094535e-17
-0.000104698920041
-5.2980713781e-05
-1.54362252508e-05
-8.57789488376e-06
9.19436616521e-06
-4.57600648848e-06
1.00784629638e-05
-2.42613027255e-06
-3.44652079027e-07
-5.42218284049e-08
-7.3280788047e-09
-1.6180419428e-09
-3.93175897695e-10
-7.96975274178e-11
-1.27917778729e-11
-1.35617372992e-12
-1.5564542642e-13
-1.37348614823e-14
-1.10775308296e-15
-4.25792814474e-17
-6.66627073222e-05
-3.31826351349e-05
-1.08368850297e-05
-7.50029367638e-06
7.12622029597e-06
-3.27253694611e-06
-5.99795257628e-06
3.95800541609e-06
1.79576500894e-06
-1.58828887106e-07
-1.17128099684e-08
-1.94832218722e-09
-4.67968462381e-10
-1.00567333062e-10
-1.70014791408e-11
-1.92197269373e-12
-2.35316107636e-13
-2.18635581741e-14
-1.83137520023e-15
-7.08617763341e-17
-4.09085460218e-05
-2.0346033618e-05
-7.52381710353e-06
-6.05275335853e-06
4.975335093e-06
-2.12084660397e-06
-1.29033913189e-06
-1.35140245008e-06
2.11142913801e-06
-2.83442361521e-07
-2.18063519137e-08
-2.61457396273e-09
-5.70748561333e-10
-1.25626939533e-10
-2.19428440959e-11
-2.99324310119e-12
-3.45046510214e-13
-3.38512534629e-14
-2.94634227631e-15
-1.14966657557e-16
-2.41828939784e-05
-1.216541225e-05
-5.17158001491e-06
-4.71531507331e-06
3.50878482253e-06
-6.94713825804e-07
-7.44296159962e-07
-7.35803301004e-07
1.81958643072e-07
-3.66237583712e-07
-3.18011403913e-08
-3.36932347331e-09
-6.88785762378e-10
-1.54444767468e-10
-2.81533255555e-11
-4.45800327622e-12
-4.91142183666e-13
-5.09303120694e-14
-4.60597687498e-15
-1.81475443156e-16
-1.38337869398e-05
-7.10111566365e-06
-3.5581261446e-06
-3.66769258412e-06
2.5826290932e-06
1.7134923559e-07
-1.11426061652e-06
2.25414797781e-06
-1.57565285614e-06
-3.09071579061e-07
-3.74991229214e-08
-3.99283468367e-09
-7.97741204594e-10
-1.83827546536e-10
-3.67751405464e-11
-5.90920612068e-12
-6.82857168771e-13
-7.46399571854e-14
-7.00052832054e-15
-2.78576884517e-16
-7.73356479339e-06
-4.09569460628e-06
-2.50991885225e-06
-2.90880175958e-06
1.92952760529e-06
8.72750259898e-07
-9.56604752066e-07
-2.06526369596e-06
2.54281643287e-06
9.09605275747e-08
-7.00340707217e-08
-5.38816396089e-09
-9.43190051308e-10
-2.19133069925e-10
-4.54514209047e-11
-7.64079094627e-12
-9.11518176017e-13
-1.06997189983e-13
-1.03693683108e-14
-4.16439072953e-16
-4.28593893275e-06
-2.39956007731e-06
-1.85062205737e-06
-2.34890523602e-06
1.23601951611e-06
1.57061805837e-06
-8.58959439498e-07
-6.75893052741e-07
1.51372178539e-06
4.79980981354e-07
-1.35234297087e-07
-8.23308261623e-09
-1.17631404064e-09
-2.60192776588e-10
-5.56746933607e-11
-9.71317325569e-12
-1.15677573624e-12
-1.50746568969e-13
-1.5014846328e-14
-6.07696646622e-16
-2.3721915889e-06
-1.45610914432e-06
-1.41211043695e-06
-1.91323964784e-06
7.78411139111e-07
1.83509390725e-06
-8.73394155181e-07
-4.69263577649e-07
-6.46978562139e-07
1.12762324188e-06
-2.19317959815e-07
-1.3069728998e-08
-1.52762432874e-09
-3.12022308468e-10
-6.73919162696e-11
-1.21440134235e-11
-1.48254775244e-12
-2.08817136441e-13
-2.12878091351e-14
-8.67252015688e-16
-1.3247580083e-06
-9.41280749967e-07
-1.11103592959e-06
-1.56869230812e-06
5.61324967066e-07
1.81261163397e-06
-9.60640515982e-07
-4.10719276414e-07
-4.83976669005e-07
1.09442529989e-06
-2.98006783533e-07
-2.00543027744e-08
-1.98270330434e-09
-3.74954778548e-10
-8.1072858115e-11
-1.4933093573e-11
-1.99083651493e-12
-2.83835353882e-13
-2.9555630749e-14
-1.21147809916e-15
-7.69192376593e-07
-6.65962483621e-07
-9.03236121978e-07
-1.29342137223e-06
5.03145577474e-07
1.68391648807e-06
-9.62726625641e-07
-7.12196768843e-07
2.15919801642e-06
2.50799118367e-07
-3.35788044509e-07
-2.85694928835e-08
-2.52700308959e-09
-4.47199154189e-10
-9.67034952958e-11
-1.81235132714e-11
-2.88946513507e-12
-3.77173780924e-13
-4.01265097143e-14
-1.656058008e-15
-4.90768713552e-07
-5.16840789957e-07
-7.5756043681e-07
-1.06418758546e-06
5.33430854925e-07
1.48403528013e-06
-8.56885583716e-07
-3.47232098521e-07
-2.36885334312e-06
2.67985576312e-06
-2.46461439841e-07
-5.35685388041e-08
-3.56266716958e-09
-5.50682899008e-10
-1.15725029461e-10
-2.20716895316e-11
-3.8402928586e-12
-4.92653223276e-13
-5.33832536708e-14
-2.21831528291e-15
-3.5670457507e-07
-4.28229446537e-07
-6.50726253529e-07
-8.60583943944e-07
5.98349996144e-07
1.23266518283e-06
-7.54332182147e-07
-2.41343812577e-07
-7.7600413836e-07
1.22017670188e-06
-9.2124747414e-08
-9.26335718146e-08
-5.19389003728e-09
-6.9482946325e-10
-1.39065118164e-10
-2.7610414834e-11
-4.81447816868e-12
-6.35856488057e-13
-6.98145168816e-14
-2.9184042586e-15
-2.8663889262e-07
-3.68196520101e-07
-5.66741873216e-07
-6.70915970735e-07
6.57312826154e-07
9.98413479651e-07
-6.59042578318e-07
-2.23132572666e-07
-5.34993917247e-07
-4.32171065781e-08
2.41631433075e-07
-1.40934860302e-07
-7.47405236428e-09
-8.71719606345e-10
-1.66488024084e-10
-3.36474006719e-11
-5.951423876e-12
-8.12454109648e-13
-8.99554126375e-14
-3.77884001829e-15
-2.41878571898e-07
-3.24287880128e-07
-4.9393485568e-07
-4.89540527106e-07
6.95049178302e-07
7.68885562298e-07
-5.64405881251e-07
-2.16329470684e-07
-4.03170778271e-07
-4.94540403585e-07
6.29737968368e-07
-1.95032158773e-07
-1.0656965056e-08
-1.08395717646e-09
-1.97287613533e-10
-4.01022649712e-11
-7.28902664746e-12
-1.02661582106e-12
-1.14439020396e-13
-4.8283703662e-15
-2.09955635384e-07
-2.90954766794e-07
-4.23141681229e-07
-3.1631812626e-07
7.02362310119e-07
5.52116393496e-07
-4.75155591405e-07
-1.94967797063e-07
-3.13026462017e-07
-3.38543162586e-07
8.61053017441e-07
-2.45085354213e-07
-1.54350098019e-08
-1.34658493416e-09
-2.31146240739e-10
-4.72917639853e-11
-8.83491835361e-12
-1.24895574554e-12
-1.44495914074e-13
-6.11883804515e-15
-1.87556409326e-07
-2.62747432199e-07
-3.47872187968e-07
-1.55738146062e-07
6.74479930766e-07
3.54113030074e-07
-4.18001896984e-07
-7.81254339386e-08
-1.3368267383e-07
-1.15987183616e-06
1.59039503245e-06
-2.69140296333e-07
-2.50923402538e-08
-1.76419922861e-09
-2.73996990888e-10
-5.54215461183e-11
-1.06068172308e-11
-1.51728723543e-12
-1.81216727316e-13
-7.70897162903e-15
-1.71419257203e-07
-2.3341348057e-07
-2.65444207272e-07
-1.53991697541e-08
6.11189304943e-07
1.81619867836e-07
-3.7310329237e-07
-3.04413242166e-08
-8.74248860885e-08
-6.14665798419e-07
1.04961000563e-06
-2.1386961471e-07
-4.13028467603e-08
-2.39909351021e-09
-3.29225657272e-10
-6.47216658794e-11
-1.2624581015e-11
-1.84089354438e-12
-2.25308910763e-13
-9.64732549324e-15
-1.56813892926e-07
-1.98046529032e-07
-1.77792924721e-07
9.49406283723e-08
5.1523265279e-07
4.1022859421e-08
-3.26454260824e-07
-1.2878206978e-08
-8.3129304101e-08
-4.71405021702e-07
2.11085924678e-07
-8.34241871117e-08
-5.99664701746e-08
-3.24226427239e-09
-3.94515074426e-10
-7.50706755082e-11
-1.48709314033e-11
-2.22624967278e-12
-2.76833213409e-13
-1.19602449399e-14
-1.39304863096e-07
-1.54935939044e-07
-9.16048557279e-08
1.65236989772e-07
3.94746597562e-07
-6.19794119351e-08
-2.79803379191e-07
4.53484381601e-09
-7.7966726521e-08
-3.19615044312e-07
-4.95602093177e-07
1.80742581785e-07
-8.04636738848e-08
-4.42625772886e-09
-4.71391235578e-10
-8.62232289199e-11
-1.73046333979e-11
-2.6746162394e-12
-3.3528098616e-13
-1.46559142427e-14
-1.1657017088e-07
-1.06654567579e-07
-1.76037437252e-08
1.89057625754e-07
2.62984753979e-07
-1.31169419763e-07
-2.28518928328e-07
2.03521157334e-08
-7.00240674679e-08
-1.86363085458e-07
-4.52717934293e-07
3.15189605759e-07
-9.22395091739e-08
-6.22420988919e-09
-5.6769912782e-10
-9.84516833204e-11
-1.99072640387e-11
-3.18322412737e-12
-3.99912942504e-13
-1.77380293505e-14
-8.97752617468e-08
-6.0421548554e-08
3.18465491421e-08
1.68037985719e-07
1.36486158092e-07
-1.68043433448e-07
-1.77872523183e-07
3.2612062499e-08
-6.18310710067e-08
-9.31301854782e-08
-3.75101682513e-07
3.49152111484e-07
-8.47445095914e-08
-9.18916419521e-09
-7.05602004152e-10
-1.12879963942e-10
-2.2734048915e-11
-3.75028189054e-12
-4.70049582558e-13
-2.12148180368e-14
-6.41414706498e-08
-2.65404394778e-08
4.82085811915e-08
1.14154134603e-07
3.10916587592e-08
-1.76406173476e-07
-1.29924258336e-07
3.97300673833e-08
-5.49147215793e-08
-4.28386801406e-08
-2.92619104985e-07
2.88762832998e-07
-5.15664326739e-08
-1.37304305507e-08
-9.25300958516e-10
-1.31450099783e-10
-2.59498701071e-11
-4.38225033751e-12
-5.45590766457e-13
-2.51039035072e-14
-4.71982197945e-08
-1.33844804255e-08
3.31917288583e-08
4.72755605185e-08
-4.26019684445e-08
-1.62591221116e-07
-8.60284038713e-08
3.96416067626e-08
-4.90543632979e-08
-2.59275971467e-08
-2.12804965969e-07
1.45460539685e-07
-3.82659159625e-09
-1.94143411213e-08
-1.26396155463e-09
-1.5630692015e-10
-2.97785794627e-11
-5.09680837843e-12
-6.27370287142e-13
-2.94446670824e-14
-4.36961682222e-08
-2.07805384381e-08
1.14241870089e-10
-1.18090544452e-08
-8.18797701534e-08
-1.34109444765e-07
-4.57020382424e-08
2.68754883927e-08
-4.171227911e-08
-1.99973292382e-08
-1.60869632834e-07
1.21977272238e-08
4.11465355865e-08
-2.39260634341e-08
-1.78125665865e-09
-1.89974159536e-10
-3.4465207095e-11
-5.92239870098e-12
-7.17383136532e-13
-3.43127812983e-14
-5.05224617971e-08
-3.82953124386e-08
-3.25246838371e-08
-4.9568780031e-08
-9.125663188e-08
-9.66471117728e-08
-2.31756101247e-09
-2.31225448651e-08
-2.62023975947e-08
-1.52544802106e-08
-1.14657307613e-07
-6.61845152057e-08
7.73941231994e-08
-2.57085799483e-08
-2.54928730547e-09
-2.36131441212e-10
-4.02631978649e-11
-6.8954230838e-12
-8.18461838163e-13
-3.98176789392e-14
-5.79661513018e-08
-5.21171358769e-08
-5.16712521751e-08
-6.36267140196e-08
-8.06123154279e-08
-5.92595416173e-08
3.14448427818e-08
-5.31901554151e-08
-1.11892758614e-08
-1.06805563163e-08
-7.51905798847e-08
-8.84251391892e-08
9.81288854276e-08
-2.38006459237e-08
-3.6452789954e-09
-3.00628485842e-10
-4.7459877723e-11
-8.05766997968e-12
-9.33504283444e-13
-4.60808551188e-14
-5.7808909501e-08
-5.47356820778e-08
-5.48745542687e-08
-6.0126077683e-08
-6.0695877481e-08
-3.00311107668e-08
4.61158631533e-08
-3.85754123463e-08
-7.35442423941e-09
-7.6812003813e-09
-4.84576631006e-08
-8.86619521208e-08
1.02427061792e-07
-1.80661964326e-08
-5.11600444551e-09
-3.94057238348e-10
-5.64842449386e-11
-9.45288938351e-12
-1.06459316801e-12
-5.32259675088e-14
-4.92672513276e-08
-4.75165407106e-08
-4.72129240842e-08
-4.75260224221e-08
-3.94265056947e-08
-1.00583239507e-08
5.16188048814e-08
-3.4127699981e-08
-6.59802172159e-09
-5.96532556531e-09
-3.30926076359e-08
-8.53181312442e-08
9.13467377306e-08
-8.80084716345e-09
-6.69797787516e-09
-5.31554448917e-10
-6.83829957298e-11
-1.11239841768e-11
-1.21219310988e-12
-6.13851220528e-14
-3.68020646262e-08
-3.59283596066e-08
-3.52438936598e-08
-3.2582757339e-08
-2.12936934799e-08
3.59641504318e-09
4.58600953784e-08
-3.06280799116e-08
-6.28094119551e-09
-5.00357742717e-09
-2.43989084553e-08
-7.91972664144e-08
6.68019255443e-08
1.66089526057e-09
-7.98368291828e-09
-7.34346987054e-10
-8.40911364274e-11
-1.30860695856e-11
-1.37446696482e-12
-7.07510529281e-14
-2.49504204883e-08
-2.45552157481e-08
-2.34106806467e-08
-1.89305764934e-08
-6.69633180004e-09
1.85964166134e-08
1.10227940573e-08
-2.1711026052e-08
-5.05595640674e-09
-4.27350559782e-09
-1.89341193462e-08
-6.87947187488e-08
4.02375780041e-08
1.17585301938e-08
-8.46168502262e-09
-1.03151285354e-09
-1.02842200226e-10
-1.53398126002e-11
-1.55097851714e-12
-8.17898677205e-14
-1.60030497105e-08
-1.56124798806e-08
-1.37860347295e-08
-8.11982740098e-09
4.67828647824e-09
3.40055791618e-08
-3.16780229929e-08
-9.51244665476e-09
-2.93616901657e-09
-3.52710858862e-09
-1.5075835551e-08
-5.62682797996e-08
2.00015163824e-08
1.98850484819e-08
-7.80345988392e-09
-1.43107766278e-09
-1.26852921086e-10
-1.77967874164e-11
-1.74301590584e-12
-9.54089306591e-14
-1.02631034229e-08
-9.52112065215e-09
-6.99471489161e-09
-7.52849504922e-10
1.29926364808e-08
2.56611745293e-08
-2.06617031493e-08
-5.96909100655e-09
-2.0910376408e-09
-3.01818551934e-09
-1.22125235098e-08
-4.44952864317e-08
5.69586731619e-09
2.41740187302e-08
-6.18844076605e-09
-1.90362110844e-09
-1.57627071116e-10
-2.02597074981e-11
-1.9543569461e-12
-1.13101814477e-13
-6.46052708066e-09
-4.88196144998e-09
-1.00736067483e-09
7.73796556141e-09
2.46437671832e-08
-2.35354401031e-08
-8.91650325109e-09
-3.01851419241e-09
-1.4235945734e-09
-2.60004891143e-09
-1.00213098603e-08
-3.47283616476e-08
-3.57571547384e-09
2.52244047103e-08
-3.99122293767e-09
-2.38045081283e-09
-1.99077316198e-10
-2.2582753068e-11
-2.19426557942e-12
-1.37188885962e-13
-2.79807380285e-09
2.11378989859e-10
6.55000254768e-09
1.77840317293e-08
-1.0620926961e-08
-1.03459385585e-08
-4.06705108564e-09
-1.55918718022e-09
-1.02601920159e-09
-2.25966358859e-09
-8.27892407612e-09
-2.69708829299e-08
-8.9345312213e-09
2.35768342357e-08
-1.82748559177e-09
-2.75173822951e-09
-2.58320799318e-10
-2.46958247321e-11
-2.46850636349e-12
-1.70413523333e-13
2.75538037777e-09
7.32135810201e-09
1.28607453976e-08
-1.20689471207e-08
-8.80600000522e-09
-4.13943637005e-09
-1.77901460724e-09
-8.19037166967e-10
-7.6670002586e-10
-1.89708451903e-09
-6.61923038165e-09
-2.06651170671e-08
-1.22658333337e-08
2.08525704565e-08
3.21097095678e-10
-2.87555499272e-09
-3.34827436068e-10
-2.59001933406e-11
-2.72016020002e-12
-2.11060063225e-13
-1.19323294393e-27
-1.12428774369e-28
-7.21913589532e-27
-9.67342591598e-28
-3.70026972136e-26
-5.26327701478e-27
-1.52105735602e-25
-1.8873567983e-26
-5.13690099498e-25
-5.54029169586e-26
-1.52348021865e-24
-1.47284302317e-25
-4.13131352363e-24
-3.66576122228e-25
-1.04559243605e-23
-8.66641085581e-25
-2.50616153303e-23
-1.967175102e-24
-5.7630724504e-23
-4.33136558257e-24
-1.28502712252e-22
-9.33400756217e-24
-2.80053575207e-22
-1.9578329702e-23
-5.99833784618e-22
-4.04280354407e-23
-1.26724021622e-21
-8.28928372625e-23
-2.64670168704e-21
-1.68870029409e-22
-5.4701434485e-21
-3.41951396714e-22
-1.11847528542e-20
-6.88046611299e-22
-2.26023602931e-20
-1.37433704679e-21
-4.51007149259e-20
-2.72285909082e-21
-8.87970074905e-20
-5.35140874178e-21
-1.72321429895e-19
-1.04087276226e-20
-3.28979462327e-19
-1.99697642264e-20
-6.16320489919e-19
-3.76992348057e-20
-1.13088433712e-18
-6.98918419498e-20
-2.03050485985e-18
-1.27137162164e-19
-3.5653297066e-18
-2.27028045034e-19