/*--------------------------------*- C++ -*----------------------------------*\
  =========                 |
  \\      /  F ield         | OpenFOAM: The Open Source CFD Toolbox
   \\    /   O peration     | Website:  https://openfoam.org
    \\  /    A nd           | Version:  dev
     \\/     M anipulation  |
\*---------------------------------------------------------------------------*/
FoamFile
{
    version     2.0;
    format      ascii;
    class       volScalarField;
    location    "0.3";
    object      edc::YStar_OH;
}
// * * * * * * * * * * * * * * * * * * * * * * * * * * * * * * * * * * * * * //

dimensions      [0 0 0 0 0 0 0];

internalField   nonuniform List<scalar> 
1629
(
1.7661500809e-22
2.20863417977e-22
1.86713163874e-22
3.83726746858e-20
7.06256007575e-20
1.54291485791e-19
3.91166136748e-18
1.17933761397e-17
6.12422422291e-17
2.56454488177e-16
1.24402204845e-15
1.3730479526e-14
9.80834189167e-15
4.53887913149e-14
3.56970846803e-13
4.7473059157e-13
2.47282352662e-12
1.50066393488e-11
1.05153887486e-11
2.97686633635e-11
5.46899606634e-10
1.30887579097e-10
1.75562659073e-09
3.70189634189e-08
6.95966681945e-10
5.00841434685e-09
4.34674851508e-08
2.5564045791e-09
1.0179329237e-08
4.3882448723e-08
6.31046569055e-09
1.57014535764e-08
4.11450775937e-08
1.14769397691e-08
2.06168987401e-08
3.92710192675e-08
1.71463336856e-08
2.53000125776e-08
4.14606222415e-08
2.20695302575e-08
2.86576531259e-08
4.13106712302e-08
2.55100051447e-08
3.05861244673e-08
4.06254110081e-08
2.68266799338e-08
3.04175777855e-08
3.73028286859e-08
2.5982382291e-08
2.82637223437e-08
3.24267449334e-08
2.34868301928e-08
2.47583369811e-08
2.69439187414e-08
2.01367420721e-08
2.07728978971e-08
2.17707893557e-08
1.67194590214e-08
1.7068591752e-08
1.75782941588e-08
1.37811638616e-08
1.40755828943e-08
1.45699596157e-08
1.14520697625e-08
1.17646175026e-08
1.23232494569e-08
9.55857492345e-09
9.8500770444e-09
1.03619689349e-08
7.9414756705e-09
8.17791978633e-09
8.58388581757e-09
6.55696690584e-09
6.74058228318e-09
7.05987146749e-09
5.42116348311e-09
5.57284680878e-09
5.84892803469e-09
4.54240466863e-09
4.67886769733e-09
4.9410048859e-09
3.88421052861e-09
4.01208796523e-09
4.26079569701e-09
3.38683309864e-09
3.50209401021e-09
3.72413864605e-09
2.98767932025e-09
3.08418032925e-09
3.26874774658e-09
2.64243989155e-09
2.71875730071e-09
2.86716101273e-09
2.33431459939e-09
2.39546925158e-09
2.51871104685e-09
2.06747687326e-09
2.12100862167e-09
2.23369510557e-09
1.85971825426e-09
1.9125207309e-09
2.02739768061e-09
1.72676683604e-09
1.7824316249e-09
1.90817183421e-09
1.68151042481e-09
1.74396867657e-09
1.88677294425e-09
1.73829706945e-09
1.81001459433e-09
1.9748359696e-09
1.91058983706e-09
1.99412737788e-09
2.18606748202e-09
2.2119282047e-09
2.30930919109e-09
2.53338240958e-09
2.65990356789e-09
2.77490667138e-09
3.04042057667e-09
3.30390739313e-09
3.44533215254e-09
3.7722918716e-09
4.27440781582e-09
4.45863317743e-09
4.88754884506e-09
5.84346469604e-09
6.10007243892e-09
6.6998558193e-09
8.51498834026e-09
8.89259954474e-09
9.77657836009e-09
1.32055486211e-08
1.37859927196e-08
1.51450214717e-08
2.15984559234e-08
2.25220094983e-08
2.46821845307e-08
3.6747852802e-08
3.82512424729e-08
4.1759498978e-08
6.39853282509e-08
6.64506307213e-08
7.21825926831e-08
1.12085207113e-07
1.16084508316e-07
1.25335013488e-07
1.94331381558e-07
2.00639471928e-07
2.15145278014e-07
3.28761531996e-07
3.38311851184e-07
3.60143218817e-07
5.36836025056e-07
5.50624822557e-07
5.81978095932e-07
8.41194889443e-07
8.60244070228e-07
9.03377912541e-07
1.26715816968e-06
1.29275680309e-06
1.35057545511e-06
1.85608586613e-06
1.89047159164e-06
1.9680583958e-06
2.69459684269e-06
2.74196024734e-06
2.84883644826e-06
3.95872770166e-06
4.02666260586e-06
4.17995275216e-06
5.98675476139e-06
6.08869112615e-06
6.31881087628e-06
9.43308839496e-06
9.59371374363e-06
9.95629552216e-06
1.55749854843e-05
1.58397898421e-05
1.6437340538e-05
2.69624309614e-05
2.74160735077e-05
2.84385790583e-05
4.86311264347e-05
4.94212289973e-05
5.11964193308e-05
8.96022301325e-05
9.09645219947e-05
9.40166587086e-05
8.5325717796e-14
1.84363534703e-12
4.73619775826e-11
5.7834392801e-09
3.71130165097e-07
1.92287238353e-07
1.06069528003e-07
6.76017849552e-08
5.78901889114e-08
6.33770656636e-08
5.84648209863e-08
5.41969021499e-08
4.57531542158e-08
3.70757712424e-08
2.90571439266e-08
2.25646174788e-08
1.80139085268e-08
1.51480440551e-08
1.30080788967e-08
1.09482418795e-08
9.028858537e-09
7.41641066189e-09
6.17409349394e-09
5.25971805332e-09
4.56166306107e-09
3.98526455241e-09
3.48517262064e-09
3.04663425685e-09
2.67718381677e-09
2.39025161716e-09
2.19629949205e-09
2.098768574e-09
2.10553069397e-09
2.22843573067e-09
2.48037623467e-09
2.87697219034e-09
3.44850406405e-09
4.27921008475e-09
5.558380693e-09
7.64224417376e-09
1.1166598189e-08
1.72791684706e-08
2.80649256362e-08
4.72278669124e-08
8.10538233616e-08
1.39526264254e-07
2.3718016496e-07
3.92984523172e-07
6.28735053319e-07
9.67276822129e-07
1.43590710044e-06
2.08240876771e-06
3.00636487338e-06
4.40598528875e-06
6.65816201516e-06
1.04910244118e-05
1.73180394984e-05
2.99426214239e-05
5.37946971478e-05
9.84624073129e-05
2.20021917779e-16
1.10169037986e-15
2.74570290478e-15
4.10062117897e-15
3.54135403648e-15
1.9456851015e-15
7.46426545435e-16
2.12962347972e-16
4.75465083227e-17
8.55359911911e-18
1.25905105267e-18
1.53265871967e-19
1.55609172493e-20
1.32796178338e-21
9.60562981197e-23
5.94997492514e-24
3.20198615177e-25
1.52315443776e-26
6.52016683861e-28
1.4874696405e-29
3.44405349009e-15
1.76839430255e-14
5.30696774316e-14
8.83566003617e-14
7.22410347195e-14
3.52278369105e-14
1.17464560202e-14
2.90878626439e-15
5.69471469546e-16
9.06462036902e-17
1.19136996216e-17
1.30788931295e-18
1.21069366567e-19
9.53397877419e-21
6.44899345273e-22
3.79266917526e-23
1.97374926908e-24
9.28375926147e-26
3.932571373e-27
8.95754640736e-29
3.44561412851e-14
1.64546268516e-13
6.09804485527e-13
1.12370715711e-12
8.61406246468e-13
3.74576988224e-13
1.10239150928e-13
2.42898729233e-14
4.28026999847e-15
6.17649086028e-16
7.41766620013e-17
7.50414609514e-18
6.45875309267e-19
4.77391146258e-20
3.0623091637e-21
1.72839087081e-22
8.75788693063e-24
4.10131230316e-25
1.74066424965e-26
3.74993828785e-28
1.548768538e-13
1.56420282574e-12
6.4337805444e-12
1.14735943103e-11
8.11680630836e-12
3.21508304549e-12
8.61807141666e-13
1.75424480859e-13
2.87521630881e-14
3.88687468795e-15
4.40574201843e-16
4.2371677332e-17
3.49081314085e-18
2.48631804891e-19
1.54745241e-20
8.54003681037e-22
4.27248974481e-23
2.00483686805e-24
8.71946511509e-26
2.2551337758e-27
4.59786060277e-12
4.4303178039e-11
9.89848752087e-11
1.28789821215e-10
7.85680328653e-11
2.77869391281e-11
6.70965718089e-12
1.25029109316e-12
1.89161045613e-13
2.3891583305e-14
2.56069363414e-15
2.35395437327e-16
1.87118448208e-17
1.29650468221e-18
7.90797958541e-20
4.30799166495e-21
2.14444325979e-22
1.01257302033e-23
4.5278661381e-25
1.46705442817e-26
3.14780780329e-10
5.070900205e-09
2.60177743762e-09
1.51236441915e-09
7.28873096294e-10
2.30146578226e-10
5.00484059198e-11
8.39882560402e-12
1.16220129791e-12
1.36763416749e-13
1.38867196228e-14
1.22622009139e-15
9.46811957633e-17
6.4298099858e-18
3.87223431517e-19
2.09614678047e-20
1.04315979192e-21
4.95947429634e-23
2.25095077786e-24
8.23163949188e-26
5.96618892446e-08
3.38456858388e-07
6.95074516281e-08
1.73749852185e-08
5.12593291525e-09
1.59940718394e-09
3.27199160387e-10
4.9515383323e-11
6.27375933186e-12
6.92649081232e-13
6.73509402428e-14
5.78249150663e-15
4.3891108336e-16
2.953401449e-17
1.7726373201e-18
9.6051714743e-20
4.79968036652e-21
2.29512868697e-22
1.0412878361e-23
4.00008708579e-25
1.26059256414e-06
0.00350772822846
2.57401173767e-07
5.66838401459e-08
1.24623463664e-08
5.76410126958e-09
1.4811689449e-09
2.20058112162e-10
2.66412181486e-11
2.86734449002e-12
2.76262082532e-13
2.37263601014e-14
1.81107518151e-15
1.22921162547e-16
7.45352272737e-18
4.08230360808e-19
2.0596722939e-20
9.90442636233e-22
4.44648027089e-23
1.70715597694e-24
4.36914571446e-07
6.5667166505e-07
1.80278454226e-07
4.72310509832e-08
1.37309948306e-08
5.47250170297e-09
2.37835402678e-09
5.04843116283e-10
7.33881922399e-11
8.77697931059e-12
9.07196739944e-13
8.20200656381e-14
6.51628927208e-15
4.56931157342e-16
2.84703667409e-17
1.5946314388e-18
8.1793113746e-20
3.96188326222e-21
1.75178787104e-22
6.51507825423e-24
1.65651595426e-07
2.02287939853e-07
7.22123495181e-08
2.2502548761e-08
1.13705311205e-08
4.76166156576e-09
2.7726322914e-09
8.36964448947e-10
1.53910518138e-10
2.14435565481e-11
2.47266500269e-12
2.42879038614e-13
2.05882513764e-14
1.52033812721e-15
9.87544736856e-17
5.71557125126e-18
3.00017769496e-19
1.46778033875e-20
6.38665744276e-22
2.26446479872e-23
7.77279651525e-08
6.88039168884e-08
1.06700715377e-07
1.63040178889e-08
9.91531113978e-09
4.16760174966e-09
3.01157128626e-09
1.25415048201e-09
2.87135741381e-10
4.64202665219e-11
5.98116641407e-12
6.42201202295e-13
5.85736667743e-14
4.59546245533e-15
3.13711252213e-16
1.88866130302e-17
1.01943339234e-18
5.05075361677e-20
2.16551375925e-21
7.27470742234e-23
9.12153797118e-08
3.40964345794e-07
0.00216486815369
9.65865232193e-08
3.59810760019e-08
8.86282965142e-09
4.42416947535e-09
2.20291119716e-09
5.63278801014e-10
9.8613806578e-11
1.3675124602e-11
1.57834792469e-12
1.53991918035e-13
1.28317917271e-14
9.22595807649e-16
5.79477005835e-17
3.22545416503e-18
1.62196121579e-19
6.86866254004e-21
2.18508851603e-22
1.16497764664e-07
3.73815734625e-07
0.00606301578667
7.78730571918e-08
2.30558100598e-08
1.11802103837e-08
4.025518705e-09
2.90726281119e-09
9.77292649164e-10
1.9259077184e-10
2.90897160538e-11
3.60964844061e-12
3.76448032987e-13
3.33290012113e-14
2.52746286259e-15
1.65947952988e-16
9.54673412448e-18
4.8840406012e-19
2.04962904598e-20
6.19526215766e-22
8.97844837126e-08
1.96379162542e-07
0.000425885502743
1.18032254815e-08
9.14019060741e-09
8.17614801901e-09
2.92114134107e-09
2.81777751323e-09
1.32058569673e-09
3.25615638907e-10
5.56814011142e-11
7.56471175562e-12
8.50842567862e-13
8.04592269797e-14
6.45945000703e-15
4.44710958879e-16
2.65189143696e-17
1.38453207923e-18
5.78295286506e-20
1.67118062812e-21
7.70611635735e-08
1.34996281607e-07
0.000177263519543
8.12421864112e-09
3.27703731782e-09
3.0892885523e-09
1.81833899601e-09
1.99428439217e-09
1.50087909823e-09
4.80948333728e-10
9.59870738168e-11
1.45071966395e-11
1.77645890597e-12
1.80575556071e-13
1.54202993599e-14
1.11749593161e-15
6.93238446294e-17
3.70790133739e-18
1.54949861304e-19
4.31650745429e-21
5.68040068541e-08
7.30384180257e-08
3.64645786252e-06
0.00143895211295
2.39023832897e-08
1.70583297408e-08
3.86632434962e-09
1.89465691971e-09
1.66808510814e-09
6.74217859773e-10
1.54479599506e-10
2.58915215048e-11
3.45718196837e-12
3.78804794167e-13
3.45187166788e-14
2.64189204554e-15
1.71101821845e-16
9.41439054285e-18
3.95847317742e-19
1.07304176031e-20
4.21642469879e-08
5.06319971818e-08
4.41300175628e-07
0.00565238009658
2.60135511122e-08
1.36364404744e-08
5.00574929343e-09
1.69993743909e-09
1.75302530266e-09
8.65987970152e-10
2.32620355674e-10
4.34331161132e-11
6.32405213583e-12
7.47597313547e-13
7.28275540098e-14
5.90108932954e-15
4.0025386771e-16
2.27461385974e-17
9.67801930388e-19
2.57816042205e-20
3.06472322081e-08
3.36719167395e-08
1.28720288481e-07
0.000915502427906
3.87561906393e-09
4.46479204517e-09
3.59158067453e-09
1.24749630915e-09
1.52330673616e-09
1.04038908525e-09
3.25497274234e-10
6.83645968762e-11
1.09117716225e-11
1.39450629142e-12
1.45480935114e-13
1.25066607553e-14
8.90899116499e-16
5.2489898216e-17
2.27240331396e-18
6.00813172271e-20
2.2704330906e-08
2.34583624435e-08
6.21856398368e-08
0.000344565640111
2.03564653901e-09
8.53747813552e-10
1.16583765775e-09
7.42032492334e-10
1.13605051246e-09
1.04521679254e-09
4.17623310304e-10
1.00803431215e-10
1.77967284401e-11
2.4676458589e-12
2.76274098709e-13
2.52501716586e-14
1.89392169421e-15
1.16094717306e-16
5.14052144807e-18
1.36195844824e-19
1.8113162636e-08
1.91808754568e-08
4.48062492826e-08
0.000198744383962
6.02074765034e-09
4.70165157907e-10
4.86072176089e-10
3.80280791461e-10
5.72479315247e-10
9.20046465254e-10
4.92067361552e-10
1.41123350764e-10
2.7594267803e-11
4.16315135887e-12
5.00984663445e-13
4.87579138586e-14
3.85941953118e-15
2.46914686094e-16
1.12357023851e-17
3.01027182431e-19
1.57657326852e-08
1.70444777469e-08
3.67377573768e-08
5.47968158769e-05
0.00246759118376
5.6094505406e-09
7.43831706956e-09
2.0757613117e-09
6.59732886207e-10
9.20184043607e-10
5.81196357591e-10
1.909004884e-10
4.13082408773e-11
6.7550885559e-12
8.72574655553e-13
9.04550208133e-14
7.5669544277e-15
5.06578643172e-16
2.37901281512e-17
6.49963529438e-19
1.38129664276e-08
1.46691485997e-08
2.88409428127e-08
8.72151156848e-06
0.00518884153213
3.91618358904e-09
3.64227864266e-09
2.34726109349e-09
5.30681383901e-10
7.85505646196e-10
6.5536134414e-10
2.48469183342e-10
5.98988528127e-11
1.05954592986e-11
1.4664290209e-12
1.61855291034e-13
1.4322271354e-14
1.00540454256e-15
4.89088147686e-17
1.37295008478e-18
1.15892337549e-08
1.17415529809e-08
2.06875548646e-08
1.96167170502e-06
0.000835944251876
1.69631473136e-09
5.91106272476e-10
7.596474121e-10
3.1667574243e-10
5.6033456147e-10
6.47172807704e-10
3.09104372031e-10
8.33049807192e-11
1.60549373587e-11
2.38206440546e-12
2.80025227009e-13
2.62349512434e-14
1.93468991282e-15
9.78070332188e-17
2.840248333e-18
9.48898271467e-09
9.28550549118e-09
1.54001653272e-08
7.1544762886e-07
0.00036730678847
6.80393259837e-09
1.34724457561e-10
1.74698107301e-10
1.42231595711e-10
3.30517390664e-10
5.39349918187e-10
3.5381673126e-10
1.10144868783e-10
2.34284849813e-11
3.74158170743e-12
4.69104590952e-13
4.65892558506e-14
3.61571671798e-15
1.90523015972e-16
5.75793667059e-18
7.77385809825e-09
7.54280667172e-09
1.24423301181e-08
3.58179058462e-07
0.000228789069683
0.00106096629995
4.92878247853e-09
3.42718966539e-09
6.29349037175e-10
2.47404645486e-10
4.60947842934e-10
3.90058806039e-10
1.43125437083e-10
3.30722223849e-11
5.69586952518e-12
7.6228156241e-13
8.0337422308e-14
6.57199424246e-15
3.61897383345e-16
1.1442704143e-17
6.49803343143e-09
6.43391673497e-09
1.10050728006e-08
2.14410875262e-07
9.38387503867e-05
0.00386465447698
4.49469417814e-09
4.76814158766e-09
1.37474806731e-09
2.40459160816e-10
3.93623197293e-10
3.96055144498e-10
1.78420052468e-10
4.52691753142e-11
8.42162140003e-12
1.20365374228e-12
1.34717465636e-13
1.16320434571e-14
6.70918954033e-16
2.22953992172e-17
5.57988976747e-09
5.7524164312e-09
1.0411746924e-08
1.45743606329e-07
3.27963701423e-05
0.00512495922878
3.54846213668e-09
1.96447341784e-09
9.27504890437e-10
1.77117759933e-10
3.12296050551e-10
3.87403489322e-10
2.0334398138e-10
5.98163100293e-11
1.20910547462e-11
1.84865792541e-12
2.19945333809e-13
2.00691614956e-14
1.21487161233e-15
4.2596202039e-17
4.86442433731e-09
5.24704225618e-09
9.9639978711e-09
1.07140351746e-07
1.41939338988e-05
0.00226303023812
1.19486572862e-08
2.42263915878e-10
2.69129753896e-10
9.51980381641e-11
2.08144445588e-10
3.30104978373e-10
2.17725215311e-10
7.5747326769e-11
1.68700857066e-11
2.76318017848e-12
3.49951907701e-13
3.37846277023e-14
2.15009596068e-15
7.98046205548e-17
4.25682661173e-09
4.80532611859e-09
9.50071371205e-09
8.49305776813e-08
7.71356254193e-06
0.000585862946223
2.4993775797e-07
7.91404757848e-11
5.72609809665e-11
5.51831059943e-11
1.17454596616e-10
2.50743913213e-10
2.34021232355e-10
9.15298452751e-11
2.27918030984e-11
4.02073925326e-12
5.43058723315e-13
5.55351530029e-14
3.72134385313e-15
1.46622386354e-16
3.73281323429e-09
4.44154146012e-09
9.13841530734e-09
7.15787345458e-08
4.67637603141e-06
0.0003055334454
0.00137572930185
3.28345820526e-09
2.03396787978e-09
3.10325908046e-10
8.97547820259e-11
1.97025652161e-10
2.3902609653e-10
1.07333134155e-10
2.98958967072e-11
5.70315262676e-12
8.22609554882e-13
8.91966969427e-14
6.30127613898e-15
2.64148113795e-16
3.29327211915e-09
4.16816253998e-09
8.89762293224e-09
6.23727035495e-08
2.95861289154e-06
0.000178510401501
0.00372174320701
3.50830564197e-09
3.31760680038e-09
7.85429280727e-10
8.84929365635e-11
1.65611396124e-10
2.28994563043e-10
1.2683916035e-10
3.81931753249e-11
7.8970885385e-12
1.21724778724e-12
1.40037400101e-13
1.04403787112e-14
4.66505310202e-16
2.95029435532e-09
4.00542700348e-09
8.84442040963e-09
5.67496176281e-08
2.03813413686e-06
9.74066965184e-05
0.00539842935462
7.9440656756e-09
2.24523754868e-09
6.09857995875e-10
7.28405166988e-11
1.25484483011e-10
2.07043494889e-10
1.50484901145e-10
4.74618436699e-11
1.06822644983e-11
1.7607364947e-12
2.14987879933e-13
1.69275130606e-14
8.07397467994e-16
2.71475610843e-09
3.96932501026e-09
9.04810834701e-09
5.4540766533e-08
1.55999819959e-06
6.00802677153e-05
0.00479816427086
1.21278235247e-07
7.32144034767e-10
3.14228550265e-10
6.56848233974e-11
9.29229793399e-11
1.69729774533e-10
1.55179017542e-10
5.70154478763e-11
1.40999140682e-11
2.49065032789e-12
3.22887415764e-13
2.68618649978e-14
1.36916720921e-15
2.58975116209e-09
4.0561204168e-09
9.49947061942e-09
5.48352033991e-08
1.29049016419e-06
4.02901707938e-05
0.00304571658086
0.000307703392906
4.47768376944e-09
1.17344819136e-09
1.0815738243e-10
6.25112991578e-11
1.29696360564e-10
1.39421177622e-10
6.60499724294e-11
1.82965450681e-11
3.44655597739e-12
4.74643604565e-13
4.17331178277e-14
2.27495124202e-15
2.57039945067e-09
4.24385092818e-09
1.01476888151e-08
5.65202233565e-08
1.09678617786e-06
2.66981984189e-05
0.000799139204215
0.00122282283258
1.04942771594e-08
2.70351764308e-09
2.46687380446e-10
6.70801151301e-11
1.14291245753e-10
1.36857939507e-10
7.37263875144e-11
2.31581799869e-11
4.66438144616e-12
6.83029829909e-13
6.34927888106e-14
3.70410196744e-15
2.6626667061e-09
4.55061441929e-09
1.10994631437e-08
5.99877656603e-08
9.7070388417e-07
1.898026263e-05
0.000348098328679
0.0029152807037
1.39999837179e-08
5.20224901742e-09
5.54544978262e-10
6.97061451501e-11
9.34596997985e-11
1.36013648933e-10
7.94370096099e-11
2.84430942944e-11
6.16990662517e-12
9.6219727556e-13
9.46097731144e-14
5.91107061724e-15
2.87946311665e-09
5.0155988847e-09
1.25193795816e-08
6.59636604344e-08
9.0620491635e-07
1.46723413692e-05
0.000243848024186
0.00468488238659
3.64067813547e-08
6.79398079592e-09
6.91903959649e-10
5.8670320736e-11
7.87026733291e-11
1.23747111698e-10
8.37359195564e-11
3.38659439138e-11
7.97606774927e-12
1.32744233825e-12
1.38139785921e-13
9.2494367187e-15
3.23691638843e-09
5.70179146961e-09
1.46192408761e-08
7.54100899837e-08
8.96292968253e-07
1.23287608717e-05
0.000188513403809
0.00552420094358
8.07125303256e-07
6.91118436485e-09
7.95867026613e-10
6.75317306629e-11
6.41308129595e-11
1.02198075954e-10
9.02348562882e-11
3.9099378633e-11
1.00799427131e-11
1.79493917165e-12
1.97804042658e-13
1.42023386975e-14
3.76088599038e-09
6.71019769423e-09
1.76956306877e-08
8.95181226115e-08
9.31701512059e-07
1.10140106387e-05
0.000151143493279
0.00542166105175
0.000174658120826
1.82976089911e-08
2.18410783369e-09
1.08984301152e-10
5.9231234448e-11
9.04398210783e-11
9.77879741723e-11
4.37444479007e-11
1.24574001828e-11
2.38018024352e-12
2.77959639665e-13
2.14141973587e-14
4.51278741551e-09
8.21018399239e-09
2.22035101665e-08
1.09823492195e-07
1.00298763493e-06
1.01688264005e-05
0.000120572099403
0.00464765504763
0.000636439599572
3.11391528469e-08
4.23158979184e-09
2.17444411644e-10
6.34059791049e-11
7.54640508529e-11
1.00161525869e-10
4.72683544515e-11
1.50343632354e-11
3.09457937669e-12
3.83352505247e-13
3.17142954324e-14
5.63206446507e-09
1.04915221172e-08
2.89105712916e-08
1.38788976051e-07
1.10871768629e-06
9.61182511963e-06
9.69890239481e-05
0.00350814147906
0.00140523523689
5.04627331064e-08
7.61071459607e-09
4.0435957491e-10
5.72369657843e-11
7.16751399567e-11
9.07640942818e-11
5.01472344278e-11
1.7779218911e-11
3.94363905554e-12
5.18844712667e-13
4.61359160353e-14
7.38455965132e-09
1.40501062241e-08
3.91091023168e-08
1.80110967271e-07
1.25289041368e-06
9.28812191996e-06
7.99832726568e-05
0.00235490638514
0.00243443453685
1.20713463549e-07
1.30686531516e-08
7.32594627525e-10
5.98793794001e-11
6.24908752516e-11
8.41928940232e-11
5.14407080775e-11
2.10138324532e-11
4.92979972795e-12
6.89447573407e-13
6.5951048477e-14
1.02383051721e-08
1.97429968976e-08
5.49158443108e-08
2.389553795e-07
1.44236511664e-06
9.17953254089e-06
6.8310187321e-05
0.00137319169479
0.0034457024967
1.1173031179e-06
2.14187031278e-08
1.13406399049e-09
7.01617982605e-11
5.24296218464e-11
7.54588557065e-11
5.06664562288e-11
2.42951014921e-11
6.0440343428e-12
9.00092491381e-13
9.27070840941e-14
1.50190042132e-08
2.9062828391e-08
7.96882062174e-08
3.22244045095e-07
1.68667194986e-06
9.29465826414e-06
6.10251519681e-05
0.000754440161788
0.00417890237644
3.77122687107e-05
4.68639472721e-08
2.62719494935e-09
1.20249494983e-10
5.23773005335e-11
6.24686866111e-11
4.86621190179e-11
2.74361183811e-11
7.26579061297e-12
1.15491271313e-12
1.28219082541e-13
2.32073504582e-08
4.45781604792e-08
1.18537987437e-07
4.38926555203e-07
1.99742906079e-06
9.64168278381e-06
5.69878542567e-05
0.000520677726871
0.00465711803603
0.000187156324336
8.75405030468e-08
5.59423451571e-09
1.85002797983e-10
5.67877662293e-11
5.60419528692e-11
4.62015799355e-11
3.02742594584e-11
8.55953430252e-12
1.45616745122e-12
1.74488383997e-13
3.7441724559e-08
7.0566477007e-08
1.78958650031e-07
6.00395284942e-07
2.38867764358e-06
1.02286125199e-05
5.52573461922e-05
0.000426600256037
0.00493555982826
0.000411902094078
1.50789946128e-07
1.0738562136e-08
3.31412574411e-10
6.38974449979e-11
5.0724873329e-11
4.31529640443e-11
3.26783583396e-11
9.8780131492e-12
1.80351325308e-12
2.33588811719e-13
6.22713079625e-08
1.13832283888e-07
2.71475165258e-07
8.20760531627e-07
2.87840228532e-06
1.10858300469e-05
5.53192935332e-05
0.000381773228022
0.00506258155589
0.000700495886451
2.29257290131e-07
2.19950934725e-08
6.29265019595e-10
7.6411687847e-11
4.53495448759e-11
3.99560196185e-11
3.45642577581e-11
1.11699945328e-11
2.19405833381e-12
3.075799541e-13
1.05136813764e-07
1.84576982446e-07
4.10048569912e-07
1.11670196521e-06
3.48941458072e-06
1.22636613864e-05
5.72136786933e-05
0.000361648801956
0.00508830370921
0.00101839726927
5.91085029825e-07
3.44231612782e-08
1.32314164047e-09
1.05144255967e-10
4.70401021679e-11
3.71901927791e-11
3.59459869169e-11
1.23920225135e-11
2.62279063557e-12
3.98417129706e-13
1.77380883189e-07
2.97016943152e-07
6.11923107679e-07
1.50738644678e-06
4.25191251342e-06
1.38467821268e-05
6.10285481339e-05
0.00035924559063
0.00505942921797
0.00131204315506
3.20360567342e-06
5.04972605631e-08
2.91769197856e-09
1.7035938069e-10
5.55025593761e-11
3.58332018226e-11
3.69889233351e-11
1.35201332688e-11
3.08336625142e-12
5.07778908874e-13
2.94827007462e-07
4.6926798161e-07
8.9684670558e-07
2.01523121783e-06
5.20923272848e-06
1.59662496883e-05
6.70165625017e-05
0.000374338384246
0.00500753822172
0.00156351417313
1.82465587595e-05
7.61048905451e-08
6.48859675462e-09
3.23094199416e-10
6.64667836038e-11
3.77851313462e-11
3.80959235348e-11
1.4563982361e-11
3.56904990211e-12
6.368276926e-13
4.77267146282e-07
7.22200710985e-07
1.28652099608e-06
2.66902791631e-06
6.42860595092e-06
1.88232725389e-05
7.55982011769e-05
0.00041475146771
0.00495079163547
0.00176253206354
5.52018237112e-05
1.14996215139e-07
1.24879335008e-08
4.68118053559e-10
8.72580887449e-11
4.27463310712e-11
3.98507345788e-11
1.55774645459e-11
4.07502411522e-12
7.8606463432e-13
7.46699812724e-07
1.0781979743e-06
1.80644254491e-06
3.51257958017e-06
8.02238401364e-06
2.27433257945e-05
8.75218089749e-05
0.000514289758226
0.00489835682191
0.00188454373814
0.000102295892449
1.81545258869e-07
2.19149491326e-08
9.84569065683e-10
1.21808843477e-10
5.11928686955e-11
4.28384380744e-11
1.66581528925e-11
4.60117773351e-12
9.553902381e-13
1.12641915892e-06
1.56333791234e-06
2.49471513821e-06
4.62409930275e-06
1.01928418785e-05
2.8318676136e-05
0.00010433964559
0.000788290499063
0.00484478200166
0.00194113238636
0.000148207269958
3.21196665336e-07
3.6399675619e-08
2.02132829357e-09
1.88561191502e-10
6.35122947065e-11
4.73986574178e-11
1.79287609314e-11
5.15366326398e-12
1.14437431665e-12
1.64676890856e-06
2.21886766116e-06
3.42182896984e-06
6.15065276641e-06
1.32964610681e-05
3.65162776982e-05
0.000127706426957
0.00139236167867
0.00475528597552
0.00194150922287
0.000190033359416
6.48229163403e-07
5.80592301045e-08
3.93326905083e-09
3.21747990275e-10
8.05063363475e-11
5.33631357815e-11
1.95076750257e-11
5.7442255301e-12
1.35262310326e-12
2.36405143347e-06
3.12581644799e-06
4.72354856485e-06
8.35441078001e-06
1.79112102567e-05
4.86285168452e-05
0.000158446969402
0.00205400625879
0.00462295540481
0.00189201997298
0.00022537926098
1.40572526541e-06
9.05272781447e-08
7.70157096165e-09
3.50173615287e-10
9.51440617984e-11
5.94522958598e-11
2.14542765573e-11
6.38659759242e-12
1.58034418564e-12
3.39404775202e-06
4.44375664703e-06
6.65044430462e-06
1.16861767423e-05
2.49479789232e-05
6.62560739726e-05
0.000198135899319
0.00271153582825
0.00443749447839
0.00179821133751
0.000251163993373
2.88683715173e-06
1.38683088957e-07
1.37066954942e-08
7.12850821702e-10
1.30658708354e-10
6.39724217179e-11
2.38140475016e-11
7.09576382023e-12
1.82925397349e-12
4.9623131209e-06
6.47155171144e-06
9.65154749005e-06
1.691506458e-05
3.58341586082e-05
9.12873617687e-05
0.000256839024371
0.00335000186387
0.0041865122729
0.00166776735698
0.000265647965028
5.30607710901e-06
2.05958436774e-07
2.39277248726e-08
1.38355668301e-09
2.00147859143e-10
7.07750528441e-11
2.66633275741e-11
7.88998514648e-12
2.10435505676e-12
7.4935408628e-06
9.76154964602e-06
1.45384336316e-05
2.53824056615e-05
5.2829662035e-05
0.000126268346602
0.000465032637238
0.00389075645109
0.00386131225059
0.00150848064405
0.00026833997755
8.54743405676e-06
2.98809041898e-07
4.07565451278e-08
2.6429847728e-09
3.06388107254e-10
8.70905882719e-11
3.02311775752e-11
8.80207717836e-12
2.41692683811e-12
1.18070715052e-05
1.5377363647e-05
2.28661538386e-05
3.95986075949e-05
7.97456025591e-05
0.000177133486947
0.00161231467072
0.00422413223724
0.00346525754253
0.00133105459892
0.00026021201215
1.20595004339e-05
4.22963367881e-07
6.76150872503e-08
4.91754201825e-09
4.99912112323e-10
1.08363413637e-10
3.47766075208e-11
9.88581817932e-12
2.78891372408e-12
1.9481921688e-05
2.53242981381e-05
3.74080938627e-05
6.33918011747e-05
0.000120724223674
0.000280383426003
0.00271943954073
0.0042813537597
0.00301318360275
0.00114594083109
0.000243238154509
1.51666919583e-05
5.82829395113e-07
1.05671419329e-07
8.75856110937e-09
8.24800652343e-10
1.38896678238e-10
4.06181224719e-11
1.12248922025e-11
3.25922986778e-12
3.36209035469e-05
4.34233773222e-05
6.3050102055e-05
0.000102613507931
0.000187392662764
0.00132008792667
0.00359569587519
0.00405512593313
0.00253225784217
0.000962661997243
0.000219871505779
1.74029039811e-05
7.81825595485e-07
1.54970963083e-07
1.60134019556e-08
1.38646493227e-09
1.86908979407e-10
4.82824786154e-11
1.29542535331e-11
3.89272150349e-12
6.00817823575e-05
7.64019441995e-05
0.000107620542884
0.000170459917063
0.000658691105215
0.00266158671591
0.00402021504628
0.00358796566659
0.00205348530709
0.000788654920015
0.000192746508553
1.86396281055e-05
1.01672426011e-06
2.13674655785e-07
2.734620771e-08
1.91074367039e-09
2.63004562518e-10
5.83856904369e-11
1.52714312625e-11
4.8149332929e-12
0.00010915661062
0.000137042307975
0.000199589263987
0.00073378826786
0.00220683511179
0.00357964311364
0.00391834668846
0.0030002525074
0.00163914068904
0.000648565293072
0.000171574472886
2.03631600839e-05
1.34699388382e-06
2.92487440383e-07
4.56509398244e-08
3.32221116716e-09
3.76242639492e-10
7.05820712018e-11
1.83071137445e-11
6.24165163301e-12
1.25494320771e-26
2.40382009904e-26
1.61834460111e-26
2.73043822427e-26
4.42586335926e-26
5.25537750406e-26
1.60213045187e-25
1.38944820443e-25
5.49120909152e-25
3.52719085042e-25
1.72965978618e-24
8.87742262048e-25
5.08308902831e-24
2.20621744901e-24
1.41196831459e-23
5.40119174773e-24
3.74648942522e-23
1.30300349995e-23
9.58435614244e-23
3.10389818653e-23
2.38147087441e-22
7.317015464e-23
5.7769733087e-22
1.7094470692e-22
1.37276868685e-21
3.96069111095e-22
3.20281139403e-21
9.10299772434e-22
7.34855810201e-21
2.07543071237e-21
1.65997107536e-20
4.69356377191e-21
3.69451383524e-20
1.05265364771e-20
8.10543258347e-20
2.3406160981e-20
1.75323293138e-19
5.15782018053e-20
3.73807257663e-19
1.12610184849e-19
7.85299238343e-19
2.4326611198e-19
1.6247269876e-18
5.19061279725e-19
3.308241473e-18
1.09256441609e-18
6.62525979869e-18
2.2662382425e-18
1.30412810778e-17
4.62808971908e-18
2.52105645328e-17
9.3007335742e-18
4.78324251463e-17
1.83638254238e-17
8.90090950788e-17
3.55783275348e-17
1.62344768529e-16
6.75665199285e-17
2.90094328866e-16
1.25680289342e-16
5.07761560862e-16
2.28874681465e-16
8.70584271212e-16
4.07990872527e-16
1.4624084929e-15
7.11949088249e-16
2.40776158786e-15
1.21653017208e-15
3.88808364614e-15
2.03661152706e-15
6.16205145032e-15
3.34251048666e-15
9.58848356273e-15
5.38042327981e-15
1.46518241559e-14
8.49698403954e-15
2.19940114191e-14
1.31692893648e-14
3.24518464123e-14
2.00406723365e-14
4.70876340669e-14
2.99569897386e-14
6.71976370695e-14
4.39929537142e-14
9.42966068669e-14
6.34597727563e-14
1.30085929475e-13
8.98896984957e-14
1.76391673347e-13
1.24985421313e-13
2.35038298406e-13
1.70512063116e-13
3.07643220239e-13
2.28112237738e-13
3.95389884658e-13
2.99076292795e-13
4.98859751411e-13
3.84131944699e-13
6.18034299326e-13
4.83384389528e-13
7.52480475024e-13
5.96447601029e-13
9.01909954883e-13
7.22981355241e-13
1.06714590277e-12
8.63658258117e-13
1.25199402348e-12
1.02208396209e-12
1.46577244592e-12
1.20721792461e-12
1.7262106398e-12
1.43561408748e-12
2.06610470799e-12
1.73850503925e-12
2.53777136348e-12
2.16355407377e-12
3.24049708107e-12
2.79269607935e-12
4.61784679719e-12
4.20679922841e-12
)
;

boundaryField
{
    inletfuel
    {
        type            calculated;
        value           uniform 0;
    }
    inletair
    {
        type            calculated;
        value           uniform 0;
    }
    outlet
    {