/*--------------------------------*- C++ -*----------------------------------*\
  =========                 |
  \\      /  F ield         | OpenFOAM: The Open Source CFD Toolbox
   \\    /   O peration     | Website:  https://openfoam.org
    \\  /    A nd           | Version:  dev
     \\/     M anipulation  |
\*---------------------------------------------------------------------------*/
FoamFile
{
    version     2.0;
    format      ascii;
    class       volScalarField;
    location    "0.3";
    object      edc::YStar_CH4;
}
// * * * * * * * * * * * * * * * * * * * * * * * * * * * * * * * * * * * * * //

dimensions      [0 0 0 0 0 0 0];

internalField   nonuniform List<scalar> 
1629
(
0.999999993653
0.999999993453
0.999999994012
0.999999184033
0.999998711334
0.999997412047
0.999946710786
0.999858230771
0.99936908277
0.99769264675
0.989428533821
0.898692469089
0.991588901677
0.968763515597
0.819100894137
0.979764838692
0.936908159407
0.748897522358
0.959872129707
0.894991413815
0.694218121701
0.929917427946
0.847407926859
0.655388901263
0.889711114861
0.79939289269
0.628469115117
0.84137373656
0.753772394332
0.607582706322
0.788846885979
0.711321177561
0.588755836792
0.736350845733
0.671957245998
0.570354103448
0.687013785145
0.635559025178
0.552087822236
0.642426239752
0.602070050469
0.53393413834
0.602978138232
0.571445348342
0.515934864301
0.568372252074
0.543574763863
0.498214843009
0.537982773702
0.518238548906
0.480926101238
0.511095934506
0.495133160225
0.464161496937
0.487039565663
0.47392329471
0.447942044756
0.465242455485
0.454291945492
0.432244624541
0.445244436614
0.435965688911
0.417041152273
0.426672028519
0.418707328719
0.402296258355
0.409206202001
0.402291655479
0.387929950467
0.392591599963
0.386530044984
0.373859917259
0.376649383232
0.371295460059
0.360047224976
0.361255288548
0.356502065405
0.346474306784
0.346300872207
0.342064461598
0.333095310086
0.331687844769
0.327898851573
0.319851103285
0.31734349008
0.313944276667
0.306702705202
0.303234548431
0.30017950041
0.293653127326
0.289356478108
0.286610270226
0.280729088964
0.275705155121
0.273237207839
0.267939928495
0.262273566049
0.260055093874
0.255282850234
0.249062908348
0.247067336598
0.242765436132
0.236079837652
0.234283772639
0.230404296767
0.223323850002
0.221706539549
0.218206975883
0.210789631668
0.209332401059
0.206174187296
0.198476938343
0.197162933166
0.1943109931
0.186396051981
0.185210234935
0.182633104136
0.174561797906
0.173490839094
0.171160539414
0.162983496389
0.162015336393
0.15990646574
0.15166366641
0.15078733454
0.148876669335
0.140601352398
0.13980700367
0.138073635408
0.129795287239
0.129074287374
0.127499838419
0.119244068998
0.118588961374
0.117157524116
0.108943562158
0.108347859869
0.107045558739
0.098885630217
0.0983436532926
0.0971583118712
0.089059604948
0.0885664929533
0.0874876899611
0.0794568329114
0.0790087150582
0.0780281777967
0.0700798577311
0.0696740955025
0.0687862318585
0.0609568342886
0.060592148024
0.0597943054348
0.0521557963216
0.0518320100531
0.0511238789466
0.0437853081595
0.0435025429248
0.0428843683801
0.0359710621512
0.035728704861
0.0351990601718
0.0288215896841
0.0286178418105
0.0281727098312
0.0224109759772
0.0222432125626
0.0218768209429
0.016788060459
0.0166534141732
0.0163594877476
0.0119922989323
0.0118878664422
0.0116600515166
0.00805559339063
0.00797821337227
0.00780957681589
0.00500330316533
0.00494956059862
0.00483260667143
0.00281895052024
0.00278469006999
0.00271028397465
0.00141766018705
0.00139808221486
0.00135568067727
0.00062515392475
0.000614764468533
0.000592285192575
0.275495294436
0.349432392059
0.410063325254
0.443568018417
0.460423559926
0.470663388379
0.475642243228
0.476117720057
0.473567114441
0.469212281379
0.46335976127
0.455978358975
0.447248648181
0.437510349395
0.427050822941
0.416057602087
0.404653197074
0.392969995641
0.381143746392
0.369223463187
0.357220439723
0.345178109126
0.333146404212
0.321117096885
0.309056233917
0.296950011753
0.284831179184
0.272752462456
0.260732444128
0.248769719094
0.236876567341
0.225078511231
0.213390079671
0.201816779025
0.190367652107
0.179062653513
0.167926150083
0.156974540023
0.146216350706
0.135657029705
0.125302329271
0.115157716187
0.105224709963
0.0954999338634
0.0859776839965
0.076655420836
0.0675433183179
0.0586778548154
0.0501336108931
0.0420205451545
0.0344594517431
0.0275514848626
0.0213658109892
0.0159498997933
0.0113429848495
0.00757527377269
0.00467052014336
0.00260750940062
0.00129737646385
0.000561398671178
2.54423387744e-08
3.59943774491e-08
2.07883759803e-08
7.9781614464e-09
2.31006948578e-09
5.37785489409e-10
1.04143997282e-10
1.70575620886e-11
2.40619003099e-12
2.95044461965e-13
3.1467002996e-14
2.9166120067e-15
2.34724011045e-16
1.64005363902e-17
9.9654609927e-19
5.28877495163e-20
2.47323522335e-21
1.03090761488e-22
3.91675130082e-24
8.67088513789e-26
3.90874025826e-06
1.44467141226e-06
4.5442233885e-07
1.18940481844e-07
2.57256501674e-08
4.72274425362e-09
7.52367013939e-10
1.05134261173e-10
1.31584338388e-11
1.4751436196e-12
1.47061478802e-13
1.29543428304e-14
1.00359827955e-15
6.82238646157e-17
4.07270260624e-18
2.1450103411e-19
1.00783995734e-20
4.28322317981e-22
1.65784750243e-23
3.8763725865e-25
0.000406281703415
3.49215998305e-05
5.10549302298e-06
8.78418181304e-07
1.46248734097e-07
2.2360355982e-08
3.11771929988e-09
3.95846549014e-10
4.6434543299e-11
4.94991354493e-12
4.73383507672e-13
4.02575317992e-14
3.0280896009e-15
2.01042297524e-16
1.18016574654e-17
6.16506097942e-19
2.90583263628e-20
1.26289771279e-21
5.02472250129e-23
1.15017622185e-24
0.0288762031087
0.000727271788583
3.84277223043e-05
4.42986459732e-06
6.42903674545e-07
9.26087011255e-08
1.24614049765e-08
1.55827981861e-09
1.80385049216e-10
1.89342587412e-11
1.77937750362e-12
1.48588038481e-13
1.09837329278e-14
7.18446283567e-16
4.17304810961e-17
2.17154221045e-18
1.02997081536e-19
4.58346190275e-21
1.90758603972e-22
5.04019484457e-24
0.0579995036028
0.00186208681058
9.38800216014e-05
1.1710109844e-05
1.95551091666e-06
3.16254942034e-07
4.58810002171e-08
6.05934408997e-09
7.1977060225e-10
7.63055493883e-11
7.18218730005e-12
5.98325056113e-13
4.40696972222e-14
2.87429001418e-15
1.6686819604e-16
8.71712819096e-18
4.18005253769e-19
1.90480310775e-20
8.29276985316e-22
2.71499839392e-23
0.0988383752323
0.00575204297596
0.000250836289331
3.28329729984e-05
6.05256618973e-06
1.08498976559e-06
1.70309974563e-07
2.33925903988e-08
2.83447696721e-09
3.03855529349e-10
2.88122887951e-11
2.41478895922e-12
1.78920441042e-13
1.17475927963e-14
6.87604867792e-16
3.63055564046e-17
1.7664329495e-18
8.22199321468e-20
3.6801792035e-21
1.35879030258e-22
0.141925058345
0.0160304281851
0.00181761546636
0.000217538499464
2.71730949751e-05
4.09710135162e-06
6.21629832354e-07
8.53963049226e-08
1.04437808183e-08
1.13420167795e-09
1.09133491444e-10
9.28753147977e-12
6.98912831278e-13
4.66145327142e-14
2.77223991025e-15
1.48799993249e-16
7.36414776837e-18
3.48775031401e-19
1.57494975589e-20
6.11152580574e-22
0.186012731149
1.40109091004e-13
0.00285363768743
0.000505274880012
6.92557592955e-05
1.04124978498e-05
1.68749281623e-06
2.50878514475e-07
3.26627917744e-08
3.72463608299e-09
3.72977790516e-10
3.28406019445e-11
2.54653213422e-12
1.74486075887e-13
1.0635036418e-14
5.83730976524e-16
2.94540565665e-17
1.41480154731e-18
6.36111954482e-20
2.46803214763e-21
0.229617359108
0.0440026573805
0.0042932361168
0.000665745215501
0.00010681324802
1.84840938391e-05
3.41584869906e-06
5.80520830428e-07
8.44994609017e-08
1.05136637793e-08
1.12768999191e-09
1.04964414799e-10
8.523572046e-12
6.07363538817e-13
3.82832352891e-14
2.16174935397e-15
1.11507174187e-16
5.42267158411e-18
2.40963947288e-19
9.05322881388e-21
0.263803290676
0.075100443041
0.00750216866625
0.000770305522333
0.000140697589868
2.83090371605e-05
5.96106131773e-06
1.15687494109e-06
1.90142278696e-07
2.61904724299e-08
3.05397800535e-09
3.04584260919e-10
2.62031856548e-11
1.96030269162e-12
1.28729469391e-13
7.51704488929e-15
3.97425248984e-16
1.9558351826e-17
8.56211994523e-19
3.06280308531e-20
0.28922984483
0.100685607151
0.013679696342
0.00155904425058
0.000275210891988
5.1880737085e-05
1.08393908351e-05
2.23232759742e-06
4.00510033259e-07
6.02585373885e-08
7.6150025356e-09
8.15397791756e-10
7.46345620345e-11
5.89090488059e-12
4.04867306446e-13
2.45364979737e-14
1.3325451678e-15
6.63899370441e-17
2.86196178363e-18
9.6792048308e-20
0.308869505221
0.126907943877
5.57930568319e-13
0.00217937796121
0.000501509629291
9.87944529903e-05
2.0099698193e-05
4.22355079715e-06
8.06451260264e-07
1.3068079846e-07
1.77728629795e-08
2.03834714662e-09
1.9859345631e-10
1.65699420776e-11
1.19480169371e-12
7.53232954217e-14
4.20957320759e-15
2.12546114966e-16
9.03453105648e-18
2.88580274863e-19
0.324609034311
0.158928206811
0
0.0027029277641
0.000691001048514
0.000152933006052
3.30061765475e-05
7.31165111352e-06
1.5036501232e-06
2.63939411811e-07
3.87365225191e-08
4.76633173244e-09
4.95113605022e-10
4.37524199535e-11
3.3167195978e-12
2.17937667044e-13
1.25568520949e-14
6.43632090912e-16
2.7048492511e-17
8.18440113243e-19
0.336987242686
0.187219251204
0.00121228585706
0.00331333337894
0.000845247486428
0.000207801458741
4.87046967973e-05
1.15522838709e-05
2.5773342852e-06
4.93431743482e-07
7.8587523668e-08
1.04170213286e-08
1.1573405778e-09
1.08603590344e-10
8.67578258771e-12
5.95485182085e-13
3.54500073856e-14
1.84917027088e-15
7.71219979466e-17
2.22369445035e-18
0.345594386918
0.207102556251
0.00772662084913
0.00439239088325
0.00113971387795
0.000299386340863
7.22604810049e-05
1.76409945608e-05
4.17709381015e-06
8.65249447293e-07
1.49364995253e-07
2.13555567183e-08
2.54282156366e-09
2.5396098859e-10
2.14280494592e-11
1.53985820748e-12
9.49547581257e-14
5.05591456741e-15
2.10232398614e-16
5.82217459665e-18
0.350877860564
0.224197788319
0.0601923852896
7.27742195258e-15
0.00130025976971
0.000403658690694
0.000103765961657
2.59812552935e-05
6.44385830935e-06
1.4331470934e-06
2.67478600801e-07
4.12490834368e-08
5.26978977491e-09
5.61102490286e-10
5.01039048066e-11
3.7781037398e-12
2.41967935582e-13
1.31959245378e-14
5.49866547103e-16
1.47598520251e-17
0.353453979434
0.238411254471
0.0955997285434
1.66876009527e-17
0.00156219428882
0.000491557788343
0.000134931703687
3.55458801698e-05
9.32412683947e-06
2.23238270867e-06
4.51439795617e-07
7.52426981196e-08
1.03324389049e-08
1.17494116477e-09
1.11244328183e-10
8.82101757317e-12
5.88324726059e-13
3.29789596668e-14
1.38444033976e-15
3.63692948266e-17
0.353764168958
0.249726871355
0.123648124495
9.65242111892e-05
0.00196819993641
0.000571478793862
0.000164057977096
4.57916979673e-05
1.27645445728e-05
3.29123256178e-06
7.21845147177e-07
1.30228706498e-07
1.92506128777e-08
2.34118639957e-09
2.35396704093e-10
1.96651621034e-11
1.36930707102e-12
7.91694167127e-14
3.36574066056e-15
8.73806955074e-17
0.352046513027
0.25774762102
0.143586095448
0.00146731485438
0.00263744306909
0.00069106973495
0.000203198377109
5.89476201663e-05
1.71555836288e-05
4.70193552763e-06
1.11041442046e-06
2.16124544572e-07
3.43431207946e-08
4.46545820642e-09
4.77006221161e-10
4.20325052861e-11
3.06178558411e-12
1.83152888568e-13
7.92402221877e-15
2.05243546991e-16
0.348463273621
0.262243921237
0.155268179134
0.00440936632894
0.00360397219082
0.000962728253921
0.000284999183275
8.15519672593e-05
2.36332483907e-05
6.68293852566e-06
1.67199794673e-06
3.48075838146e-07
5.91820029557e-08
8.20734892179e-09
9.30581586673e-10
8.65152610265e-11
6.60190435839e-12
4.09651034516e-13
1.81161427884e-14
4.72335229772e-16
0.343316224406
0.263959503981
0.163084160732
0.0186059959581
3.30920475404e-19
0.00103507423318
0.000370696470901
0.000111792289391
3.25385898378e-05
9.39254497911e-06
2.4658966495e-06
5.45794712842e-07
9.8922621167e-08
1.45980060099e-08
1.75484695755e-09
1.72115301969e-10
1.37726872658e-11
8.88411197921e-13
4.03171195998e-14
1.06685972044e-15
0.337031260046
0.264139790118
0.171193533424
0.0496936636573
3.52638084168e-14
0.00118971157069
0.000439277089508
0.000140901204819
4.25693730105e-05
1.27208998279e-05
3.51672924172e-06
8.28511021737e-07
1.60122804513e-07
2.51423025284e-08
3.20432533376e-09
3.31693016609e-10
2.78638242389e-11
1.87228391242e-12
8.75041715762e-14
2.36783095997e-15
0.329877738445
0.263185464081
0.178846476127
0.076660179078
8.45411915526e-05
0.00152106041919
0.00051202041749
0.000170661163471
5.37434573296e-05
1.66759506302e-05
4.85191025034e-06
1.21665903609e-06
2.50881224995e-07
4.19415567911e-08
5.6706475047e-09
6.20041166677e-10
5.47523056725e-11
3.84015090757e-12
1.85455719084e-13
5.16707440667e-15
0.321996493777
0.261018504973
0.184280722519
0.0931438612166
0.000825247490662
0.00204994818131
0.000652951766534
0.000219338740461
6.96519565965e-05
2.18589028995e-05
6.58457607154e-06
1.74312137119e-06
3.82175885205e-07
6.79376360271e-08
9.74260130648e-09
1.12586456865e-09
1.04630297827e-10
7.67420258724e-12
3.84142303559e-13
1.10879597268e-14
0.313539603514
0.257728447052
0.187329280911
0.102967759052
0.00234440961603
2.76348728218e-12
0.000651714789309
0.000265945806385
8.936462581e-05
2.84587027781e-05
8.79869166234e-06
2.44233389791e-06
5.67321120296e-07
1.07062250375e-07
1.62760938148e-08
1.98842003518e-09
1.94665741011e-10
1.4955957396e-11
7.7809316571e-13
2.33937604776e-14
0.304658768838
0.253547070121
0.188649096926
0.109810849698
0.00875256788149
3.03135172456e-19
0.000655259043186
0.000299059122705
0.000107750671761
3.55675662908e-05
1.13796900256e-05
3.31846254576e-06
8.17485910881e-07
1.63915387335e-07
2.64373021061e-08
3.4174235417e-09
3.5284811077e-10
2.84415487025e-11
1.54172532351e-12
4.85111016511e-14
0.295407294889
0.248539276491
0.188542799994
0.1149995006
0.021429363591
8.43662342965e-16
0.000726212212814
0.000328493325757
0.000124190505679
4.27106070168e-05
1.4215792852e-05
4.36316445816e-06
1.14162844102e-06
2.43617733742e-07
4.17470674448e-08
5.71740277288e-09
6.23402935707e-10
5.28019830831e-11
2.98892211551e-12
9.88324321597e-14
0.285798432219
0.242755125283
0.187264550011
0.119225901499
0.035676364351
2.33442084549e-08
0.000914980598663
0.000369699596453
0.000142880400887
5.08035037642e-05
1.74731891344e-05
5.61262361088e-06
1.5551280172e-06
3.52843710513e-07
6.42441127218e-08
9.32643038804e-09
1.07478758373e-09
9.57698153444e-11
5.67158399619e-12
1.97759786429e-13
0.275866014581
0.236289925697
0.184985191466
0.12228376799
0.0473690613862
0.000211034188629
0.00121023277027
0.000448491716491
0.000172430337885
6.19660660769e-05
2.15947624086e-05
7.16083557889e-06
2.08485424396e-06
5.00975237712e-07
9.6731766928e-08
1.48734401341e-08
1.8114303883e-09
1.698936898e-10
1.05395848739e-11
3.88589004649e-13
0.265699638191
0.229328376101
0.181963026333
0.124218440261
0.0561485824931
0.00094420359776
0
0.000437513206438
0.000199273625095
7.51218067765e-05
2.65928346624e-05
9.0441241817e-06
2.75198337486e-06
6.98193945444e-07
1.42727680282e-07
2.32235852129e-08
2.98813196299e-09
2.95042825814e-10
1.91903906389e-11
7.49704516929e-13
0.255403266661
0.222052828082
0.178440840279
0.125291644346
0.0628832301943
0.00270459631
2.91674739175e-19
0.000422299053135
0.000217633746977
8.73259801854e-05
3.18731687197e-05
1.11664928783e-05
3.55180510658e-06
9.51450009166e-07
2.05972279627e-07
3.54756396178e-08
4.82375574741e-09
5.01628425218e-10
3.42363730574e-11
1.41959330799e-12
0.245011920881
0.214474450645
0.174333846124
0.125260089418
0.0673754456749
0.00614123411935
0
0.000423908393294
0.000232462769611
9.87239553662e-05
3.73246669648e-05
1.34853232927e-05
4.47887713287e-06
1.26625039087e-06
2.9037961044e-07
5.29702585162e-08
7.61597530781e-09
8.34643571146e-10
5.982361453e-11
2.63659154809e-12
0.234524371997
0.206553450689
0.169535862891
0.124007439241
0.0698942149519
0.00997887579581
6.11337377513e-16
0.000432362063021
0.000248985556071
0.00011161275164
4.35707516975e-05
1.61238623312e-05
5.55693490503e-06
1.65214459136e-06
4.00720084436e-07
7.73796876592e-08
1.17639813977e-08
1.35904748376e-09
1.02359690595e-10
4.80057791539e-12
0.223960880771
0.198322934876
0.164127677229
0.12178057193
0.0711485430641
0.0139550239851
0
1.653828909e-07
0.000230639279728
0.000121892765138
5.02701984111e-05
1.90806967191e-05
6.79415820495e-06
2.11694111948e-06
5.42048332864e-07
1.10699967443e-07
1.77884580246e-08
2.16624186542e-09
1.71497282844e-10
8.56627714607e-12
0.213365954376
0.18987602668
0.158309518519
0.119006393631
0.071974967378
0.0188839677127
5.735219586e-05
4.71244516457e-19
0.00021084880741
0.00012834829457
5.64429199096e-05
2.21177240987e-05
8.14032533542e-06
2.65557531219e-06
7.17528962842e-07
1.54974492448e-07
2.63242521932e-08
3.37973342343e-09
2.81335402591e-10
1.49783359444e-11
0.202769510451
0.181268148422
0.152174084956
0.11579417158
0.0722741101187
0.0232386973061
0.000560679616269
0
0.000193572100217
0.000132064441175
6.18323242129e-05
2.50877938231e-05
9.54527860671e-06
3.25723867144e-06
9.28483224183e-07
2.12144306447e-07
3.81079402114e-08
5.16021144241e-09
4.51836105815e-10
2.56608974631e-11
0.192186974157
0.172520581631
0.145734945264
0.112098859284
0.0718145232341
0.0264012018558
0.00113830744049
8.49468648129e-16
0.000175826442012
0.000133888194805
6.67764455507e-05
2.80768402904e-05
1.10167168132e-05
3.92092421856e-06
1.1771941192e-06
2.84371675164e-07
5.40146995919e-08
7.71470103411e-09
7.10731943245e-10
4.30877609738e-11
0.181634450495
0.163651289487
0.13899732711
0.107884108578
0.0704995499736
0.0282593322373
0.00174688360538
5.06306303285e-17
0.00013045308505
0.000131934544696
7.14071458302e-05
3.1220778447e-05
1.25910591171e-05
4.65356683939e-06
1.4674706478e-06
3.74238713514e-07
7.51056676681e-08
1.13093857543e-08
1.09610791567e-09
7.09680380989e-11
0.171139562927
0.154696722483
0.132003889674
0.103203446502
0.0684424686888
0.0290770618454
0.00238175392388
5.94864110942e-16
1.23107614617e-06
0.000118437868985
7.44979691509e-05
3.43496618638e-05
1.42437927116e-05
5.44907019511e-06
1.80033961303e-06
4.84040878048e-07
1.02557208588e-07
1.62729385653e-08
1.65891027239e-09
1.14749660947e-10
0.160735370889
0.145704062445
0.124822508615
0.0981667170259
0.065855488039
0.0292503856922
0.00312746767433
1.479683521e-15
2.6845018062e-12
0.000103962890617
7.58484584631e-05
3.71743283889e-05
1.58876714332e-05
6.28075015714e-06
2.1705851848e-06
6.14774966612e-07
1.37477122614e-07
2.29819837246e-08
2.46427660303e-09
1.82201287722e-10
0.150444912119
0.1367049617
0.117496836123
0.0928398335653
0.0628452215078
0.0289702438553
0.00392588135199
1.22520304496e-14
0
8.87978259004e-05
7.56241972406e-05
3.95908686044e-05
1.74688908049e-05
7.12404231507e-06
2.5706077459e-06
7.66360556188e-07
1.8083842493e-07
3.18488598228e-08
3.59252106368e-09
2.84101579419e-10
0.140282385589
0.127720437085
0.110056268278
0.0872650205495
0.0594725038642
0.0282835624789
0.0046819858821
4.55717966956e-10
1.57847840376e-20
7.10657334647e-05
7.37490106998e-05
4.15998383434e-05
1.89906278855e-05
7.9715311024e-06
2.99555992785e-06
9.38717752875e-07
2.33608874724e-07
4.33338474369e-08
5.14217866493e-09
4.35205068291e-10
0.130259319317
0.118770883787
0.102531313239
0.0814849169599
0.055793550696
0.0272308669804
0.00531460120881
1.67223280881e-06
2.51282784934e-19
4.49041628157e-05
6.94221358344e-05
4.31190610257e-05
2.04664620739e-05
8.8246667041e-06
3.44277470099e-06
1.13193520428e-06
2.96805795254e-07
5.79584156455e-08
7.23432836625e-09
6.55555254334e-10
0.120388201275
0.109879617189
0.094956866506
0.0755459318522
0.0518630724111
0.0258379816385
0.00572331013718
4.34191983209e-05
0
7.38713274437e-06
6.13269913023e-05
4.38478559726e-05
2.18589793612e-05
9.67568985221e-06
3.90695421124e-06
1.34510571717e-06
3.7125688695e-07
7.62737080909e-08
1.00129699611e-08
9.71839257756e-10
0.110681165395
0.101069597362
0.0873671204608
0.0694933148242
0.0477343822012
0.024137760192
0.00585281225132
0.000134001180641
0
1.78072273362e-07
5.22255942268e-05
4.3698049483e-05
2.30978222491e-05
1.05030878976e-05
4.37768661609e-06
1.57524046283e-06
4.57242984587e-07
9.87863143506e-08
1.3638634174e-08
1.41838497831e-09
0.101145253639
0.0923565900363
0.0797873147766
0.0633642909491
0.043459374341
0.0221898331768
0.00572998726008
0.000217563201575
2.14314774223e-16
5.85256024408e-10
4.29798655548e-05
4.2676593189e-05
2.41313302856e-05
1.12877715731e-05
4.84376227385e-06
1.81794697051e-06
5.54448596234e-07
1.25909491709e-07
1.82812153022e-08
2.03797688225e-09
0.0917818925788
0.0837501961781
0.0722379461337
0.0571962507745
0.0390953661543
0.0200656971435
0.0053859804363
0.000273837389566
0
4.43127036423e-12
3.35100840352e-05
4.07591654416e-05
2.49288543792e-05
1.20231891276e-05
5.29804688766e-06
2.06897631786e-06
6.6223747517e-07
1.57978687211e-07
2.41196113377e-08
2.8830939255e-09
0.0825906314982
0.0752602584562
0.0647440675031
0.0510353644335
0.0347030352222
0.0178233765807
0.00489650467907
0.000297365841227
4.32524804519e-20
1.42923031073e-13
2.35572866047e-05
3.78491547081e-05
2.54464539764e-05
1.27086707009e-05
5.73727092171e-06
2.32468244313e-06
7.7980562454e-07
1.95268779917e-07
3.13433385577e-08
4.01727248721e-09
0.0735755875657
0.0669048448225
0.057343784451
0.0449420094943
0.0303491640101
0.0155235144613
0.00430186534283
0.000287257492527
1.96619515596e-18
0
1.27610099563e-05
3.37992116609e-05
2.55983759944e-05
1.33374695158e-05
6.15889301376e-06
2.58135661818e-06
9.06012771769e-07
2.37943216221e-07
4.01430578092e-08
5.51490466944e-09
0.064755254033
0.0587195977239
0.0500946293634
0.0389905993323
0.0261034923499
0.0132280576939
0.00364847309524
0.000246436253524
0
0
4.11045507051e-06
2.88279363456e-05
2.52867139912e-05
1.3892429454e-05
6.55926486613e-06
2.8347192453e-06
1.03915096442e-06
2.85958244692e-07
5.06866583824e-08
7.45784453942e-09
0.0561749411576
0.0507665601905
0.0430753773423
0.0332635798188
0.0220326294285
0.0109960747853
0.00298172093043
0.000180164353507
3.27375292863e-16
0
8.77810068421e-07
2.36864574607e-05
2.44680743516e-05
1.43524018615e-05
6.93495337956e-06
3.08043114577e-06
1.17696792157e-06
3.39000646465e-07
6.30914732209e-08
9.9288662703e-09
0.0479156718832
0.0431364175648
0.0363797684723
0.0278411540012
0.0181936809248
0.00887754301113
0.00233725788395
9.54247219579e-05
3.718701955e-17
0
1.79377091831e-07
1.88791163534e-05
2.31450223223e-05
1.46934393981e-05
7.28403899958e-06
3.31488386133e-06
1.31685497496e-06
3.96469914811e-07
7.73990592996e-08
1.3002701174e-08
0.0400879070909
0.0359359640777
0.0301000060742
0.0227881947401
0.0146268901297
0.00690444261193
0.00173469655253
1.88744031101e-05
6.84180776933e-17
0
3.73610796778e-08
1.45950770093e-05
2.13546882586e-05
1.48828756399e-05
7.60497529645e-06
3.53529360225e-06
1.45590028373e-06
4.57441007352e-07
9.35472282862e-08
1.67358194014e-08
0.0328063715265
0.0292644221323
0.0243109673921
0.0181532069993
0.011367939392
0.00511766292775
0.00121422125903
2.36270855639e-07
2.20921899629e-17
0
7.84246224572e-09
1.09463951514e-05
1.91860334513e-05
1.48785760796e-05
7.89572872939e-06
3.73967933603e-06
1.5908893618e-06
5.20603951381e-07
1.11337451481e-07
2.11556954808e-08
0.0261642393775
0.0231989524622
0.0190721745942
0.0139860396742
0.00847498839057
0.00359292948452
0.000821940942012
6.4481407864e-11
5.98838636968e-17
0
1.88064530088e-09
7.94979098188e-06
1.67685716563e-05
1.46317420182e-05
8.15221119449e-06
3.92670720316e-06
1.71831259307e-06
5.84215261966e-07
1.30413363952e-07
2.62555163527e-08
0.0202258125133
0.0177958524789
0.014434465457
0.0103396528466
0.00600922603894
0.00238190292108
0.00053697966076
8.4067292129e-13
6.46358133613e-18
0
6.2142850656e-10
5.62434666788e-06
1.42567398721e-05
1.40956508693e-05
8.36171599675e-06
4.09405154417e-06
1.83402846129e-06
6.45978313301e-07
1.50239451067e-07
3.1994247144e-08
0.0150374202145
0.0131002974963
0.0104437039456
0.00726178771429
0.00401233221118
0.00148946344037
0.000297742044168
0
2.13224956343e-18
0
3.0409445149e-10
3.89363556914e-06
1.18624344721e-05
1.32569589908e-05
8.50030505996e-06
4.23782435974e-06
1.93335325977e-06
7.03069038697e-07
1.70126994969e-07
3.83106346541e-08
0.0106380729576
0.00915055164493
0.00713587292431
0.00478031002162
0.00248879140669
0.000873375949539
5.38049227171e-05
0
1.70711686093e-18
2.8662917778e-19
2.10555977163e-10
2.68462056635e-06
9.74626656533e-06
1.21511661471e-05
8.53511493944e-06
4.35337262199e-06
2.0117223441e-06
7.52398953815e-07
1.89316496617e-07
4.51412492323e-08
0.00705594661285
0.00596927932836
0.00452301777933
0.00288833571777
0.00140419759273
0.000466434809005
4.18658798684e-10
0
3.76023383257e-19
0
2.06367395664e-10
1.90018662931e-06
7.98836701971e-06
1.08577271385e-05
8.42957059355e-06
4.43519535458e-06
2.06528038311e-06
7.90987559048e-07
2.07102042727e-07
5.24419959649e-08
0.00431296033564
0.00357403842033
0.00261576662888
0.00158560058263
0.000731391795287
0.000156171045816
1.33123290686e-15
2.41567875543e-17
1.33966600489e-15
0
2.76146352449e-10
1.41406188697e-06
6.56015530829e-06
9.49943509188e-06
8.15767293521e-06
4.47792995615e-06
2.09171521056e-06
8.16369124417e-07
2.22925701065e-07
6.01862279949e-08
0.00238244145175
0.00192546556681
0.00135455208001
0.00078050244726
0.000317340100182
4.51309128242e-09
0
8.5455288606e-18
2.12652167328e-15
5.04434956471e-16
4.69403400386e-10
1.11460126003e-06
5.40220333814e-06
8.18439217371e-06
7.71898571651e-06
4.47869630506e-06
2.09141529907e-06
8.27110304881e-07
2.36456007061e-07
6.83415494074e-08
0.00117110303004
0.000920421881787
0.000619000206791
0.000312306594913
4.99271321019e-06
2.0973574923e-16
2.84272045092e-17
0
0
8.03559051929e-16
9.24816712133e-10
9.23433321839e-07
4.46092779581e-06
6.98879853943e-06
7.12901140223e-06
4.43516109347e-06
2.06714545625e-06
8.22601351593e-07
2.47377435855e-07
7.67883838955e-08
0.000494733313952
0.000360358687361
0.000181130979656
1.56161077479e-06
0
0
2.55575168691e-17
7.41693971101e-15
1.7489836403e-16
1.92705939723e-14
1.51898789601e-09
7.47075098576e-07
3.65687098716e-06
5.9277961576e-06
6.43077793192e-06
4.34263047593e-06
2.0158725412e-06
8.01527853063e-07
2.54989671394e-07
8.51547797183e-08
2.17335919678e-23
4.02706763497e-23
2.82042315031e-23
4.55413048932e-23
7.28948219274e-23
8.49576206599e-23
2.46360537576e-22
2.13076964116e-22
8.01075877345e-22
5.17729618604e-22
2.42689605382e-21
1.25713586756e-21
6.93666851503e-21
3.03902905705e-21
1.8921363594e-20
7.29543969883e-21
4.9715854995e-20
1.73881472624e-20
1.26877939922e-19
4.12084477929e-20
3.16613830896e-19
9.72755023125e-20
7.76175321553e-19
2.28973348257e-19
1.87499122207e-18
5.37662229484e-19
4.47203019034e-18
1.25941007902e-18
1.05448903541e-17
2.94208369494e-18
2.46032483945e-17
6.85221048904e-18
5.68339955709e-17
1.59048817986e-17
1.30022441672e-16
3.67751204223e-17
2.94574285667e-16
8.46517636466e-17
6.60506102229e-16
1.93877975907e-16
1.46455795141e-15
4.41025782307e-16
3.20815991541e-15
9.94202485085e-16
6.93462051295e-15
2.21723497925e-15
1.47743667505e-14
4.88432053989e-15
3.09922823905e-14
1.06138171788e-14
6.39392996136e-14
2.2733283256e-14
1.2963398064e-13
4.79040386676e-14
2.58067115783e-13
9.9166359961e-14
5.03991456447e-13
2.01414503982e-13
9.64868620712e-13
4.00964570749e-13
1.80995780055e-12
7.81815303175e-13
3.32598100249e-12
1.49247020733e-12
5.98677822728e-12
2.78891373487e-12
1.05585080815e-11
5.10212616895e-12
1.82571492921e-11
9.14253897935e-12
3.09742886795e-11
1.60568437217e-11
5.15807989805e-11
2.76528977815e-11
8.43278913381e-11
4.67124524741e-11
1.35398773302e-10
7.74264398836e-11
2.13663505017e-10
1.25996487678e-10
3.31607731517e-10
2.01418241667e-10
5.06333680454e-10
3.16410897979e-10
7.60605351198e-10
4.88445410078e-10
1.12401417474e-09
7.40845774501e-10
1.63412216191e-09
1.10383488891e-09
2.33695713097e-09
1.61513995133e-09
3.28597356284e-09
2.31949988528e-09
4.5391039862e-09
3.26668989244e-09
6.15401228504e-09
4.50804766486e-09
8.18273033971e-09
6.09264714054e-09
1.06661557744e-08
8.0634235806e-09
1.36319427451e-08
1.04560388347e-08
1.70953325397e-08
1.32996286502e-08
2.10672965071e-08
1.66228854224e-08
2.55591198483e-08
2.04541812562e-08
3.05800773229e-08
2.48107551806e-08
3.61250128824e-08
2.96848260877e-08
4.21402442977e-08
3.5004772053e-08
4.84585912269e-08
4.05540641481e-08
5.52694083102e-08
4.69133469224e-08
)
;

boundaryField
{
    inletfuel
    {
        type            calculated;
        value           uniform 0;
    }
    inletair
    {
        type            calculated;
        value           uniform 0;
    }
    outlet
    {
        type            calculated;
        value           uniform 0;
    }
    axis
    {
        type            empty;
    }
    leftside
    {
        type            calculated;
        value           uniform 0;
    }
    burnerwall
    {
        type            calculated;
        value           uniform 0;
    }
    front
    {
        type            wedge;
    }
    back
    {
        type            wedge;
    }
}


// ************************************************************************* //
