/*--------------------------------*- C++ -*----------------------------------*\
  =========                 |
  \\      /  F ield         | OpenFOAM: The Open Source CFD Toolbox
   \\    /   O peration     | Website:  https://openfoam.org
    \\  /    A nd           | Version:  dev
     \\/     M anipulation  |
\*---------------------------------------------------------------------------*/
FoamFile
{
    version     2.0;
    format      ascii;
    class       volScalarField;
    location    "0.3";
    object      edc::YStar_HO2;
}
// * * * * * * * * * * * * * * * * * * * * * * * * * * * * * * * * * * * * * //

dimensions      [0 0 0 0 0 0 0];

internalField   nonuniform List<scalar> 
1629
(
6.93904787588e-19
6.61982658707e-19
5.38787829758e-19
9.54766397695e-17
1.31365566958e-16
2.2740681447e-16
7.10204279784e-15
1.50718837108e-14
5.49821205104e-14
3.932573091e-13
1.25696520112e-12
8.80197242167e-12
1.50775229399e-11
5.084338858e-11
2.9163304606e-10
5.58975060717e-10
2.05344412335e-09
1.06793140873e-08
1.56142911881e-08
5.81069612902e-08
2.71966462321e-07
2.53869227839e-07
8.96974899358e-07
3.88423866026e-06
9.55426688758e-07
2.5081361591e-06
7.52383246806e-06
2.28589785747e-06
4.66790219564e-06
1.07179259319e-05
4.27996177821e-06
7.19862006239e-06
1.36486386155e-05
6.85671081779e-06
9.99976859202e-06
1.64757763712e-05
9.92014001266e-06
1.30972970062e-05
1.95390997539e-05
1.33732452679e-05
1.64684652873e-05
2.27519802813e-05
1.70793514108e-05
1.99782960587e-05
2.58405481497e-05
2.08518882792e-05
2.34326805756e-05
2.8572186947e-05
2.45358043524e-05
2.6725815828e-05
3.10184495147e-05
2.80240258709e-05
2.9802117111e-05
3.32391049331e-05
3.12093248199e-05
3.25771254705e-05
3.51657416872e-05
3.39472285231e-05
3.49096360183e-05
3.66600040086e-05
3.60611777482e-05
3.66243342438e-05
3.75560446254e-05
3.74310900755e-05
3.76311898352e-05
3.78375948799e-05
3.80453648519e-05
3.79518467689e-05
3.75911596684e-05
3.79593595191e-05
3.76496904232e-05
3.6879888792e-05
3.72448486038e-05
3.67856404821e-05
3.57351372839e-05
3.59761757453e-05
3.5420597868e-05
3.41906792205e-05
3.4235270594e-05
3.36272739537e-05
3.23022611444e-05
3.21172408134e-05
3.14929005617e-05
3.0143645286e-05
2.97172944391e-05
2.91050805333e-05
2.77906612882e-05
2.71344299321e-05
2.65581328281e-05
2.53275712143e-05
2.4480550562e-05
2.39608510213e-05
2.28583276308e-05
2.18838993966e-05
2.14366471893e-05
2.04938751664e-05
1.94732344932e-05
1.91058618124e-05
1.83348608919e-05
1.73493660146e-05
1.7059197356e-05
1.64506401231e-05
1.55524822578e-05
1.53274605358e-05
1.48531503218e-05
1.40463874942e-05
1.38686149468e-05
1.34891809442e-05
1.27288154133e-05
1.2579229862e-05
1.22539967516e-05
1.14621087436e-05
1.13246203442e-05
1.10206711214e-05
1.01219115172e-05
9.98813291762e-06
9.68977373504e-06
8.66282792172e-06
8.5340972443e-06
8.24770685007e-06
7.16014960042e-06
7.04516807514e-06
6.7934785328e-06
5.76843314574e-06
5.67671657563e-06
5.47789713113e-06
4.6143196584e-06
4.54744698059e-06
4.40330924685e-06
3.73153943801e-06
3.68501846164e-06
3.58490677152e-06
3.0819727582e-06
3.04971016919e-06
2.9802526495e-06
2.60278653838e-06
2.57977970058e-06
2.53024196874e-06
2.23448392104e-06
2.21734260913e-06
2.18038998021e-06
1.92933547196e-06
1.91579536767e-06
1.88650961741e-06
1.65323532354e-06
1.64185305266e-06
1.61709966023e-06
1.3855616225e-06
1.37553776341e-06
1.35365313134e-06
1.11836757334e-06
1.1094538961e-06
1.08996692983e-06
8.5617475001e-07
8.48511523591e-07
8.31774724418e-07
6.13460586543e-07
6.0731419817e-07
5.93917384337e-07
4.07271560688e-07
4.0276235132e-07
3.9295570788e-07
2.48507206216e-07
2.45500359762e-07
2.38973325573e-07
1.38020897801e-07
1.36203970222e-07
1.3226859046e-07
6.88404105946e-08
6.78635040595e-08
6.57537164214e-08
3.05150115905e-08
3.00723898702e-08
2.9121877247e-08
1.23483240869e-08
1.22059652234e-08
1.19046579162e-08
5.30435885922e-09
5.30222656051e-09
5.30152737321e-09
3.02814898533e-09
3.06700623183e-09
3.15025580316e-09
2.03099095476e-09
2.05541093636e-09
2.10273039571e-09
1.31128524604e-09
1.32019697585e-09
1.33844296808e-09
4.90197682862e-11
1.2036795684e-09
3.79026221334e-08
9.24763561068e-07
1.38126352804e-05
1.81139344188e-05
2.07150586337e-05
2.29918702916e-05
2.52180665842e-05
2.82559803123e-05
3.12124018242e-05
3.34779909071e-05
3.49215163056e-05
3.60965674274e-05
3.71467020495e-05
3.79464389586e-05
3.83535853093e-05
3.82093421444e-05
3.7627119888e-05
3.67477513268e-05
3.5594075578e-05
3.41491022755e-05
3.24171363e-05
3.04388868823e-05
2.82786292554e-05
2.59972746261e-05
2.36720868676e-05
2.13959370742e-05
1.92576792811e-05
1.73306301767e-05
1.56574006682e-05
1.42275180794e-05
1.29761830498e-05
1.17997409195e-05
1.05856479552e-05
9.25998585217e-06
7.84125130785e-06
6.44403125663e-06
5.20679729958e-06
4.20854565998e-06
3.44979330674e-06
2.88624840803e-06
2.46308340237e-06
2.13006128778e-06
1.84628523206e-06
1.5827904988e-06
1.32313170096e-06
1.06274990451e-06
8.08448077551e-07
5.75316563582e-07
3.79394990011e-07
2.29979286486e-07
1.26865558904e-07
6.28726378784e-08
2.78370713354e-08
1.15084693746e-08
5.31071556668e-09
3.26330592619e-09
2.15731300579e-09
1.36260276824e-09
1.72492569102e-15
8.49360383501e-15
2.0490853705e-14
2.87443487214e-14
2.29187857873e-14
1.1813597036e-14
4.32655387712e-15
1.19431465082e-15
2.60535769665e-16
4.61303312525e-17
6.71883820464e-18
8.12512956159e-19
8.21945028416e-20
7.00484144795e-21
5.06888650702e-22
3.1456036742e-23
1.69809754449e-24
8.11321109436e-26
3.49105535744e-27
7.97513174592e-29
3.24646537003e-14
1.45676511305e-13
4.11045873876e-13
6.25718593777e-13
4.61307273998e-13
2.09012087668e-13
6.63617999997e-14
1.59132907002e-14
3.05250864037e-15
4.79978886555e-16
6.26724805926e-17
6.86267420056e-18
6.35447490733e-19
5.01567501169e-20
3.40576278311e-21
2.01304345216e-22
1.05400596016e-23
4.99365909811e-25
2.13111891712e-26
4.85583769147e-28
7.5772251857e-13
1.5533739779e-12
4.97120130859e-12
8.04081560489e-12
5.41744549844e-12
2.17206655299e-12
6.08410341428e-13
1.3015116185e-13
2.25579450674e-14
3.22875185299e-15
3.86775935872e-16
3.91783904391e-17
3.38520791914e-18
2.51649471405e-19
1.62563928921e-20
9.24926217924e-22
4.72860898089e-23
2.23637769723e-24
9.58120122905e-26
2.06430513575e-27
3.102328176e-11
2.06598751763e-11
5.6430456422e-11
8.32050131843e-11
5.03710491234e-11
1.82911201136e-11
4.67057267266e-12
9.26579547569e-13
1.49956868076e-13
2.01804364754e-14
2.28905874848e-15
2.21070355475e-16
1.833227893e-17
1.31636748108e-18
8.26904052056e-20
4.60975358881e-21
2.33118358641e-22
1.10649068301e-23
4.86232665237e-25
1.26070873294e-26
1.92758038697e-09
8.3891661334e-10
9.43678670902e-10
9.57083023155e-10
4.81019317379e-10
1.54444998496e-10
3.56316155352e-11
6.50257383546e-12
9.77247182992e-13
1.2347315893e-13
1.32973825422e-14
1.231644436e-15
9.8818582639e-17
6.91850102928e-18
4.26709626686e-19
2.35174281684e-20
1.18479234675e-21
5.6637160773e-23
2.55907107118e-24
8.31011027497e-26
1.01354850373e-07
9.3812744703e-08
2.68640105617e-08
1.24935505567e-08
4.60574702325e-09
1.26313590811e-09
2.60439769621e-10
4.30707416165e-11
5.95830747453e-12
7.06093277725e-13
7.24006558083e-14
6.46597618733e-15
5.05343690246e-16
3.47483395245e-17
2.1192128018e-18
1.16181710165e-19
5.85560245138e-21
2.81916714013e-22
1.29227455176e-23
4.7332075789e-25
3.49627199698e-06
1.00992556978e-05
1.38084957058e-06
2.33059155793e-07
4.70584791733e-08
9.69073425283e-09
1.70157432591e-09
2.51716586204e-10
3.21636500892e-11
3.60172113866e-12
3.55620794702e-13
3.09900538938e-14
2.38612981998e-15
1.62783980884e-16
9.90107005532e-18
5.43482194759e-19
2.75024701728e-20
1.33125492551e-21
6.09386889347e-23
2.34210817385e-24
5.94347089142e-05
1.30829918736e-05
2.93055566266e-05
4.57350838169e-06
4.72695890206e-07
6.02582045069e-08
8.54417395515e-09
1.14490889197e-09
1.39675227625e-10
1.53347426437e-11
1.50362531864e-12
1.31151125543e-13
1.01512260407e-14
6.97944273339e-16
4.2844195822e-17
2.3745761252e-18
1.21190220102e-19
5.89185747846e-21
2.66436684061e-22
1.02180264111e-23
5.06959473125e-05
5.01874495631e-05
2.6460453661e-05
4.00432047565e-06
6.54448246364e-07
1.0960594729e-07
1.96376386476e-08
3.12424977352e-09
4.27292363794e-10
5.06993895009e-11
5.25526812555e-12
4.78161618324e-13
3.82766792581e-14
2.70627146756e-15
1.70093763283e-16
9.61268748215e-18
4.97529908192e-19
2.43097596211e-20
1.08014672335e-21
4.00388213581e-23
4.69397394298e-05
4.99084039623e-05
2.73474412583e-05
3.74036358608e-06
7.57880333244e-07
1.56735456725e-07
3.40131458017e-08
6.52237343162e-09
1.03575141194e-09
1.37768843232e-10
1.55969660545e-11
1.52020093273e-12
1.28546218089e-13
9.50087185878e-15
6.1904051536e-16
3.59910021279e-17
1.89945263022e-18
9.34445298498e-20
4.07343488101e-21
1.43555798028e-22
4.50794737567e-05
4.84523284544e-05
3.48196933598e-05
5.08437469325e-06
1.12994546689e-06
2.46218173733e-07
5.77120939788e-08
1.25376141531e-08
2.25579180628e-09
3.34095677474e-10
4.14031065205e-11
4.35093978823e-12
3.91953645153e-13
3.05424869317e-14
2.07864677983e-15
1.25083330479e-16
6.75959974432e-18
3.35521403256e-19
1.43606969451e-20
4.77983542949e-22
4.48090742278e-05
8.27920755482e-05
1.50067130789e-05
2.25718960136e-05
3.79929982262e-06
6.12919059997e-07
1.19829271163e-07
2.55470746985e-08
4.84140072745e-09
7.69807553043e-10
1.0260725376e-10
1.15486217016e-11
1.10729038182e-12
9.11359585563e-14
6.49830447173e-15
4.0600605613e-16
2.25279641989e-17
1.13042991773e-18
4.76028046352e-20
1.49509162126e-21
4.90253425694e-05
9.18890526906e-05
1.78500156827e-06
4.51592323874e-05
7.29789801701e-06
1.19913905261e-06
2.25836491435e-07
4.89088966355e-08
9.85354036767e-09
1.67718466743e-09
2.39279332806e-10
2.87580938644e-11
2.92928552495e-12
2.54704308723e-13
1.90511169515e-14
1.23798442605e-15
7.06653451563e-17
3.59177874366e-18
1.49243808199e-19
4.43614842889e-21
5.10118642951e-05
7.763973772e-05
3.6225732262e-08
9.28517840476e-05
1.13826832206e-05
1.94456094534e-06
3.77830736465e-07
8.45803045924e-08
1.83777629629e-08
3.39803035773e-09
5.22327146296e-10
6.7184098445e-11
7.28197644012e-12
6.69717997478e-13
5.261857198e-14
3.56182646678e-15
2.09545493492e-16
1.08135828042e-17
4.45010174169e-19
1.25904946878e-20
5.02926325943e-05
6.63095050431e-05
1.61947084954e-06
0.000136288495868
2.09252223958e-05
3.80377865525e-06
7.00151190472e-07
1.47577493823e-07
3.29208298909e-08
6.50996997688e-09
1.07462443913e-09
1.47887908346e-10
1.7067336129e-11
1.6623029677e-12
1.37383200319e-13
9.70347805835e-15
5.89596039526e-16
3.09768600273e-17
1.26815967545e-18
3.44148245366e-20
4.77788329172e-05
4.98657889946e-05
1.39767128233e-05
1.44479797897e-05
3.02683254223e-05
5.17400957341e-06
1.0983331868e-06
2.42054951899e-07
5.58567224788e-08
1.17773486875e-08
2.08619496976e-09
3.073395999e-10
3.78122006679e-11
3.90474412232e-12
3.40004667841e-13
2.5104572753e-14
1.5791905212e-15
8.4741072692e-17
3.46828864308e-18
9.10864859263e-20
4.5826327761e-05
4.36065351636e-05
1.08597278078e-05
3.43431010155e-06
4.51801842638e-05
7.36429338003e-06
1.57220763154e-06
3.60934783338e-07
8.75231239473e-08
1.98217633836e-08
3.79773280074e-09
6.02089397239e-10
7.92289199467e-11
8.69562129487e-12
7.99466426894e-13
6.18454954198e-14
4.03834113109e-15
2.22103863838e-16
9.13558541053e-18
2.34419616802e-19
4.4191940723e-05
3.85569260309e-05
9.46943037623e-06
3.0962114068e-08
8.1557967576e-05
1.10647513073e-05
2.21061187776e-06
5.13116846605e-07
1.29422087563e-07
3.14364230468e-08
6.51954310643e-09
1.11614429569e-09
1.57542138574e-10
1.84210370624e-11
1.79190929559e-12
1.45545470118e-13
9.89136071567e-15
5.5953454616e-16
2.32505976029e-17
5.88614258029e-19
4.24556767893e-05
3.42554642483e-05
9.74309158739e-06
2.43268782571e-08
0.000127182738646
1.83321057876e-05
3.46955139299e-06
7.74519396658e-07
1.94039101637e-07
4.88529066511e-08
1.08249825536e-08
1.98932098123e-09
3.00471777144e-10
3.74012825469e-11
3.85050541976e-12
3.28738008954e-13
2.32988224298e-14
1.35973492916e-15
5.73574171459e-17
1.44614790908e-18
4.05657965635e-05
3.11541202444e-05
1.04431075292e-05
3.6533617475e-07
0.000166481629368
3.18053539391e-05
6.57600483267e-06
1.37899512593e-06
3.18489343569e-07
7.8485322441e-08
1.79531296315e-08
3.48219564364e-09
5.57541833696e-10
7.35241531317e-11
7.9917195968e-12
7.16764374166e-13
5.30242283046e-14
3.19986763078e-15
1.37596610283e-16
3.48541196432e-18
3.83653039209e-05
2.78649282748e-05
1.10177826133e-05
2.71601838203e-06
8.75669214019e-06
4.7944374566e-05
8.66353708263e-06
2.07744007601e-06
5.02635851454e-07
1.25335913697e-07
2.95341285259e-08
5.99963139919e-09
1.0123649595e-09
1.40803251894e-10
1.61123193639e-11
1.51620258301e-12
1.17100395589e-13
7.31909849972e-15
3.21960374879e-16
8.25875714488e-18
3.62363822828e-05
2.54389423027e-05
1.15917855542e-05
4.58333673552e-06
2.0984728142e-06
7.51679793655e-05
1.34946301849e-05
3.07724350556e-06
7.51927150899e-07
1.91517368452e-07
4.69745397584e-08
1.00479522924e-08
1.79027070397e-09
2.62557738023e-10
3.16120417027e-11
3.12006916546e-12
2.51684463633e-13
1.63169334269e-14
7.36570763626e-16
1.92712003168e-17
3.42707844315e-05
2.34504217248e-05
1.12866785545e-05
4.42722910364e-06
2.69383886033e-08
0.00011130269658
2.06530923838e-05
4.54846659211e-06
1.10423581548e-06
2.84763586129e-07
7.23774901765e-08
1.63204763951e-08
3.07497078901e-09
4.76198239022e-10
6.03663184075e-11
6.25296228997e-12
5.27318930078e-13
3.55172290301e-14
1.65019398264e-15
4.43247834377e-17
3.23339012983e-05
2.17151880709e-05
1.07513750555e-05
4.15824957297e-06
1.0164731269e-08
0.000134668985438
3.24561367885e-05
7.447847111e-06
1.74537964868e-06
4.35841866996e-07
1.11297709322e-07
2.60542911157e-08
5.1611207155e-09
8.42298817737e-10
1.12368716246e-10
1.22189596469e-11
1.07822327504e-12
7.55693329523e-14
3.62386370166e-15
1.005216192e-16
3.03382039981e-05
2.01721250138e-05
1.03034083616e-05
3.94337741123e-06
9.57183686435e-08
1.20697017359e-05
3.68364664218e-05
8.62002314331e-06
2.41558491232e-06
6.37564606921e-07
1.67231926282e-07
4.06740048788e-08
8.46287402185e-09
1.45347213968e-09
2.04015919329e-10
2.32961475388e-11
2.15298843952e-12
1.57259360075e-13
7.8037759431e-15
2.2472625484e-16
2.82707176585e-05
1.87852110834e-05
1.00681991624e-05
3.9219035369e-06
5.86344127572e-07
4.971270425e-06
5.44136467896e-05
1.02791995693e-05
3.039516476e-06
8.60608978955e-07
2.3731812898e-07
6.07821940133e-08
1.33900539395e-08
2.43238538126e-09
3.60247284028e-10
4.32806052646e-11
4.19633993492e-12
3.20028804142e-13
1.6476667886e-14
4.94929809911e-16
2.61773547695e-05
1.75857944315e-05
1.00078960522e-05
3.98775863991e-06
1.17141021618e-06
1.49743966497e-06
8.01377445706e-05
1.50923283622e-05
3.95331820988e-06
1.1248461742e-06
3.22091388583e-07
8.69892626732e-08
2.03583397692e-08
3.93289952774e-09
6.17015240099e-10
7.82289783282e-11
7.97617440245e-12
6.3651932222e-13
3.40903596281e-14
1.07278032247e-15
2.41094630964e-05
1.65450096275e-05
9.89243306298e-06
4.0084190613e-06
1.64760494496e-06
1.5837873131e-07
0.00010567479617
2.49828247717e-05
5.69458319989e-06
1.5269272465e-06
4.36907258705e-07
1.22060410786e-07
3.01302907697e-08
6.17855973292e-09
1.02765646162e-09
1.37697758323e-10
1.47889027751e-11
1.23722409154e-12
6.9090952326e-14
2.28636253519e-15
2.20895308472e-05
1.55569331142e-05
9.55852125849e-06
3.95439443153e-06
2.0427505104e-06
1.32005882484e-08
0.000106643409043
3.69529457811e-05
8.86117032426e-06
2.25090532742e-06
6.17546158172e-07
1.72831893596e-07
4.42152375439e-08
9.53293781836e-09
1.67473837282e-09
2.36863998409e-10
2.67980530863e-11
2.35214227367e-12
1.37179917842e-13
4.78810550069e-15
2.01567355459e-05
1.46091744498e-05
9.07521286221e-06
3.84781681155e-06
2.21688441648e-06
1.0886551011e-08
8.99333334431e-06
4.0932113832e-05
9.76839260636e-06
2.95884624019e-06
8.49023024988e-07
2.42249750832e-07
6.40830654183e-08
1.44718344129e-08
2.67719807396e-09
3.99043026253e-10
4.75282679842e-11
4.37759968818e-12
2.66903989895e-13
9.84810311344e-15
1.8359565602e-05
1.37113579638e-05
8.53119107974e-06
3.73067539251e-06
2.25799320271e-06
7.93460611886e-08
4.67067557032e-06
5.79658184623e-05
1.12427725395e-05
3.60579378495e-06
1.10089941353e-06
3.26830604467e-07
9.02560650762e-08
2.1444264575e-08
4.18239110323e-09
6.57410686908e-10
8.24638358908e-11
7.97422229858e-12
5.08747939565e-13
1.98794690144e-14
1.67321167699e-05
1.28549704385e-05
7.96400008134e-06
3.61596269279e-06
2.24534107214e-06
2.10651174167e-07
2.35052493916e-06
7.55828405732e-05
1.51686228697e-05
4.49319191942e-06
1.39549779662e-06
4.27673698267e-07
1.23362762218e-07
3.09055947186e-08
6.36694132682e-09
1.05702229634e-09
1.39792736199e-10
1.42051587981e-11
9.49300767078e-13
3.93457515358e-14
1.52932848001e-05
1.20245449291e-05
7.38224058797e-06
3.49608675084e-06
2.21167165437e-06
3.14240188202e-07
1.02542933333e-06
8.09334794724e-05
2.40364419916e-05
6.24918899197e-06
1.83879761094e-06
5.60723672366e-07
1.66141148648e-07
4.35705550049e-08
9.46956378873e-09
1.65999223089e-09
2.3153541075e-10
2.47374391865e-11
1.73301622885e-12
7.62879690367e-14
1.40365604435e-05
1.11840242433e-05
6.77868191154e-06
3.35904903382e-06
2.16183745769e-06
4.04696004194e-07
3.1724002718e-07
1.54650349555e-05
2.73830960302e-05
7.64399756363e-06
2.36861523024e-06
7.29470273432e-07
2.20882904194e-07
6.02967334344e-08
1.3788874618e-08
2.54957181394e-09
3.74893152718e-10
4.2117555529e-11
3.0945667841e-12
1.44825750518e-13
1.29123141669e-05
1.02774590709e-05
6.14869159585e-06
3.19991885567e-06
2.09599528927e-06
5.13122738853e-07
2.55109974837e-08
7.05745742774e-06
3.15424829945e-05
8.11695759344e-06
2.82637407952e-06
9.1269951354e-07
2.85713955299e-07
8.14328820083e-08
1.95966256482e-08
3.82368080401e-09
5.92988000032e-10
7.00806570287e-11
5.40313862344e-12
2.69082818399e-13
1.1841976363e-05
9.28334219824e-06
5.51956761209e-06
3.03105481725e-06
2.02231458916e-06
5.99316381913e-07
7.1799019359e-09
4.84592937853e-06
4.25462308949e-05
8.66206080679e-06
3.20581094591e-06
1.0962008782e-06
3.57536058662e-07
1.06805000146e-07
2.71028300425e-08
5.58887060393e-09
9.15247251599e-10
1.13883913458e-10
9.22024807808e-12
4.89128320423e-13
1.07381371289e-05
8.21528948798e-06
4.91382017646e-06
2.85799470625e-06
1.93990941532e-06
6.47393573924e-07
1.26281918016e-08
3.57478297915e-06
5.40060281683e-05
1.04855553633e-05
3.65767993376e-06
1.29334176865e-06
4.37223913877e-07
1.36619946964e-07
3.6557819118e-08
7.97017497968e-09
1.37919921183e-09
1.80792766073e-10
1.53800405133e-11
8.69960977225e-13
9.53485166817e-06
7.11659824349e-06
4.34782231356e-06
2.68394205675e-06
1.84829154274e-06
6.6244048687e-07
2.45003024575e-08
2.66155012822e-06
5.12608590458e-05
1.42254001065e-05
4.39063093549e-06
1.53923980601e-06
5.29933809614e-07
1.71805500783e-07
4.83249477521e-08
1.11232917953e-08
2.03322219848e-09
2.80765061454e-10
2.51020681587e-11
1.51504645999e-12
8.22907401087e-06
6.05326787854e-06
3.83554037805e-06
2.51289595963e-06
1.74839085469e-06
6.52042566274e-07
3.65856493651e-08
1.82744946237e-06
1.4551398712e-05
1.72276118491e-05
5.01886735833e-06
1.8121898217e-06
6.35770572161e-07
2.127722664e-07
6.26951328302e-08
1.52131860658e-08
2.93575480176e-09
4.26956916308e-10
4.01214836019e-11
2.58538339752e-12
6.89887363194e-06
5.0909182263e-06
3.3860064416e-06
2.34783193445e-06
1.6416880574e-06
6.2543809539e-07
4.76864632093e-08
1.062354069e-06
7.56460704274e-06
2.11410352168e-05
5.50068503065e-06
2.07864906385e-06
7.48880525404e-07
2.58507636348e-07
7.96649357266e-08
2.03682576525e-08
4.14939577059e-09
6.35646583225e-10
6.28011328328e-11
4.32384560201e-12
5.66406185123e-06
4.27046135111e-06
3.00051796387e-06
2.18812735089e-06
1.5275384844e-06
5.89621114323e-07
5.64961805903e-08
5.13077211781e-07
5.45334346058e-06
2.6589752791e-05
5.98696255533e-06
2.32984898308e-06
8.64924008674e-07
3.07821021108e-07
9.90552705786e-08
2.66768860016e-08
5.73760258203e-09
9.26078588298e-10
9.62389099251e-11
7.08604123164e-12
4.61793420477e-06
3.60180661954e-06
2.67459573482e-06
2.03081126101e-06
1.40525317486e-06
5.4536543464e-07
6.26738649699e-08
2.10671574658e-07
4.58171697283e-06
3.18740156756e-05
6.72180724681e-06
2.58438125313e-06
9.85362826683e-07
3.60407590924e-07
1.20808040718e-07
3.42244494041e-08
7.76918510233e-09
1.32109243825e-09
1.44446949317e-10
1.13834984625e-11
3.79035817234e-06
3.07186621803e-06
2.39928590905e-06
1.87211514989e-06
1.27487951166e-06
4.93906807577e-07
6.63776307298e-08
7.24495589203e-08
4.07883956683e-06
2.93530821212e-05
7.82683199962e-06
2.86589646128e-06
1.11482142868e-06
4.16868149553e-07
1.44963469416e-07
4.31097480315e-08
1.03194458426e-08
1.84792998102e-09
2.12597455814e-10
1.79436651263e-11
3.16031627917e-06
2.65643023156e-06
2.16187524766e-06
1.70880748559e-06
1.13756449051e-06
4.3691788266e-07
6.71034485616e-08
2.52119184184e-08
3.72466441186e-06
1.61056000702e-05
9.1172536173e-06
3.10739995279e-06
1.24885650806e-06
4.76939345221e-07
1.71410160314e-07
5.33916787951e-08
1.34622083832e-08
2.53744682822e-09
3.0716181562e-10
2.77795321744e-11
2.68518198664e-06
2.32715540182e-06
1.947652107e-06
1.53879453285e-06
9.95285580621e-07
3.76249978086e-07
6.39133829794e-08
1.3441819647e-08
3.39027703465e-06
8.84140671146e-06
1.09879419394e-05
3.28874436663e-06
1.37790373692e-06
5.38874386767e-07
1.99671386406e-07
6.50168158411e-08
1.72515407576e-08
3.42125656515e-09
4.35798240573e-10
4.22552961836e-11
2.31955617466e-06
2.0544276111e-06
1.74293339225e-06
1.3610768618e-06
8.50599543771e-07
3.14536471313e-07
5.74932387568e-08
9.65644575678e-09
3.06228725762e-06
6.25226281181e-06
1.32266578698e-05
3.48096975608e-06
1.50086811544e-06
6.01258720748e-07
2.29103408861e-07
7.78337570717e-08
2.17147066876e-08
4.52928127181e-09
6.07154739264e-10
6.31513414684e-11
2.02191120472e-06
1.81146955053e-06
1.53786729271e-06
1.17623490259e-06
7.07063037165e-07
2.54854531745e-07
4.82398917393e-08
8.14775732084e-09
2.76220857085e-06
5.18075904651e-06
1.52726644851e-05
3.70687612657e-06
1.6143140903e-06
6.63387118954e-07
2.5923233663e-07
9.16687790619e-08
2.68609715617e-08
5.88975798807e-09
8.30891852252e-10
9.2751160001e-11
1.75855311363e-06
1.57859425645e-06
1.32733421855e-06
9.87039920538e-07
5.68910098078e-07
1.9928095178e-07
3.91924287778e-08
7.60335466299e-09
2.5155593093e-06
4.63153066787e-06
1.55079532876e-05
4.08148848092e-06
1.7155310028e-06
7.24955925122e-07
2.89795135471e-07
1.06355162467e-07
3.26875763577e-08
7.52961061878e-09
1.11780976085e-09
1.339481013e-10
1.50667007806e-06
1.34466288189e-06
1.11094897269e-06
7.98857575582e-07
4.40743361571e-07
1.49765190333e-07
3.08470394899e-08
7.63580642362e-09
2.3406255741e-06
4.31645471313e-06
1.27610545411e-05
4.67271325431e-06
1.79682761155e-06
7.84840498572e-07
3.2048911439e-07
1.21697800629e-07
3.91705294389e-08
9.47197874157e-09
1.47957468233e-09
1.90316936428e-10
1.25464793333e-06
1.10668134935e-06
8.93271952762e-07
6.19215959396e-07
3.26866513999e-07
1.07781557678e-07
2.3553869554e-08
8.25475596396e-09
2.23443829427e-06
4.09860612606e-06
9.10327840414e-06
5.48546596685e-06
1.85198841987e-06
8.40275342776e-07
3.50779751718e-07
1.37432993688e-07
4.62500159342e-08
1.17314071514e-08
1.92784603928e-09
2.6608893868e-10
1.00148096819e-06
8.69565821285e-07
6.83514846372e-07
4.56376724469e-07
2.30547252386e-07
7.41113056363e-08
1.7444894141e-08
9.90505117457e-09
2.19294770204e-06
3.93189025765e-06
6.378940173e-06
6.3952012405e-06
1.90433013844e-06
8.8804852467e-07
3.8007948992e-07
1.53246619667e-07
5.38282491156e-08
1.4310337733e-08
2.47321595646e-09
3.66027250553e-10
7.56086453444e-07
6.45005335346e-07
4.93335323622e-07
3.17435752209e-07
1.53538250078e-07
4.87703157884e-08
1.24797388005e-08
1.44483224265e-08
2.21556826341e-06
3.74851265057e-06
4.97256405623e-06
7.20299041623e-06
2.01180900267e-06
9.29050737596e-07
4.08065011164e-07
1.68857777549e-07
6.17808381483e-08
1.71982497431e-08
3.12431034738e-09
4.95231685072e-10
5.33806881981e-07
4.47360658226e-07
3.3315762295e-07
2.06722354351e-07
9.60390340654e-08
3.13200166822e-08
8.66410739548e-09
3.03172755895e-08
2.29744971914e-06
3.60316809796e-06
4.25796298599e-06
7.68095115002e-06
2.20545155338e-06
9.64899554695e-07
4.34755309981e-07
1.84061054842e-07
6.99659432597e-08
2.03706689746e-08
3.8868149736e-09
6.58894719228e-10
3.49315297303e-07
2.87745263905e-07
2.08753046221e-07
1.25000390964e-07
5.65008302584e-08
2.02371488284e-08
5.70711385991e-09
8.78786078092e-08
2.41273109251e-06
3.4877854979e-06
3.8442029173e-06
7.63379571776e-06
2.47739339509e-06
9.99037354595e-07
4.60451326911e-07
1.9875932829e-07
7.82333679305e-08
2.37877066175e-08
4.76231660178e-09
8.62028199843e-10
2.10138590712e-07
1.70146533865e-07
1.20262772521e-07
6.98645423014e-08
3.20426823333e-08
1.35527685002e-08
3.9193945103e-09
2.00841581925e-07
2.55229484634e-06
3.38474854073e-06
3.56885145171e-06
7.12352766533e-06
2.81137868381e-06
1.03897291282e-06
4.85315611114e-07
2.1296436969e-07
8.64320522713e-08
2.73924414434e-08
5.7473043993e-09
1.10931323168e-09
1.15016108832e-07
9.15432173554e-08
6.32798265637e-08
3.65681270054e-08
1.86568866719e-08
9.20054503046e-09
3.42986434621e-09
3.87581326987e-07
2.70492502279e-06
3.28416904526e-06
3.36521995571e-06
6.42721610597e-06
3.19269262331e-06
1.09655602868e-06
5.10786603377e-07
2.26801991307e-07
9.43966580491e-08
3.11038119932e-08
6.83157873294e-09
1.40504558537e-09
5.66100645547e-08
4.45307290321e-08
3.07744754876e-08
1.90563940552e-08
1.1938958049e-08
5.88982949819e-09
4.54975241912e-09
6.79270056476e-07
2.85296783287e-06
3.18182701989e-06
3.20116381854e-06
5.73126735947e-06
3.55559516566e-06
1.18183158991e-06
5.3750694172e-07
2.40416069314e-07
1.01954251396e-07
3.48118095839e-08
7.99750955485e-09
1.7534081278e-09
2.50878785935e-08
2.00442346554e-08
1.48609499165e-08
1.10705245823e-08
8.04603985259e-09
3.46326790464e-09
1.29680595025e-08
1.08927412475e-06
2.97634118255e-06
3.07563594915e-06
3.05970138228e-06
5.09663135388e-06
3.8250649676e-06
1.29617518434e-06
5.66588561278e-07
2.53981862673e-07
1.08944852435e-07
3.83839919925e-08
9.22199011537e-09
2.1590474263e-09
1.06883349101e-08
9.3704978364e-09
8.30508221487e-09
7.3631374777e-09
4.78988277636e-09
2.69900605207e-09
1.33943783957e-07
1.5826775687e-06
3.04955448557e-06
2.96241633823e-06
2.93016524296e-06
4.55713242886e-06
3.95413827434e-06
1.43485877422e-06
5.99449607975e-07
2.67796012156e-07
1.15209507081e-07
4.16734487964e-08
1.04797818806e-08
2.62765738548e-09
5.33821326434e-09
5.49596997317e-09
5.5936153692e-09
4.69175795341e-09
2.58200360327e-09
5.4229191065e-09
4.48619477773e-07
2.08673013553e-06
3.05354040082e-06
2.8408954139e-06
2.80522982266e-06
4.117993428e-06
3.96165272875e-06
1.57718373394e-06
6.37556050206e-07
2.82242378413e-07
1.20661410586e-07
4.45334428866e-08
1.17471328366e-08
3.16608242096e-09
3.46785807137e-09
3.72681931002e-09
3.462178353e-09
2.38018014895e-09
2.70059290571e-09
9.42655198053e-08
9.96906917011e-07
2.51061028019e-06
2.98292623296e-06
2.71084609341e-06
2.67877271013e-06
3.7597861772e-06
3.8717931132e-06
1.69542902856e-06
6.84704002305e-07
2.98121489043e-07
1.25346252661e-07
4.68420176598e-08
1.30057248225e-08
3.78138478367e-09
2.21421971506e-09
2.12930429992e-09
1.81640410002e-09
2.32131251676e-09
2.52344494061e-08
4.67622770894e-07
1.68281999079e-06
2.770253982e-06
2.83988775013e-06
2.56546798438e-06
2.53943466745e-06
3.44869284986e-06
3.70856807238e-06
1.7778706251e-06
7.39645988131e-07
3.16103768288e-07
1.29470439155e-07
4.8503799095e-08
1.42373909248e-08
4.48204040041e-09
1.41975216212e-09
1.68541891444e-09
3.03768110379e-09
3.18253488162e-08
3.16722108665e-07
1.14227584339e-06
2.26090659711e-06
2.81111157727e-06
2.63299049879e-06
2.38898640552e-06
2.37210490573e-06
3.13326856058e-06
3.52359960537e-06
1.84510181717e-06
8.00095884199e-07
3.37749402548e-07
1.32689997654e-07
4.93302275806e-08
1.53955661903e-08
5.27140236142e-09
7.21904626866e-26
1.38754747366e-25
9.2805055503e-26
1.5767924952e-25
2.55484359532e-25
3.04936109613e-25
9.39425288638e-25
8.16944846733e-25
3.28478818125e-24
2.10925157893e-24
1.05987037564e-23
5.42208693439e-24
3.20446680372e-23
1.38223051715e-23
9.19863832547e-23
3.48641690579e-23
2.53379875888e-22
8.70454686086e-23
6.76141804379e-22
2.15609976267e-22
1.76152316215e-21
5.31192010809e-22
4.5053558002e-21
1.30402256362e-21
1.13540405606e-20
3.19296940561e-21
2.82605271379e-20
7.80092551435e-21
6.95815133464e-20
1.90176860805e-20
1.69657472801e-19
4.62582730947e-20
4.10020774685e-19
1.1225329903e-19
9.82876490343e-19
2.71732635284e-19
2.33780853432e-18
6.56028837501e-19
5.51598314559e-18
1.5792489762e-18
1.29024004467e-17
3.78485575839e-18
2.98903942643e-17
9.01105752808e-18
6.84876223522e-17
2.12730961787e-17
1.54962062133e-16
4.97052674563e-17
3.45678304715e-16
1.14738252297e-16
7.59000883079e-16
2.61332790601e-16
1.63845214714e-15
5.85942168599e-16
3.47315541939e-15
1.29089751067e-15
7.22065982805e-15
2.79000665175e-15
1.47071789866e-14
5.90758837761e-15
2.93270762713e-14
1.22428956362e-14
5.722538893e-14
2.48168269615e-14
1.09233661617e-13
4.91840173439e-14
2.03985853791e-13
9.53001445316e-14
3.72868478283e-13
1.80598503329e-13
6.67585935203e-13
3.3490902128e-13
1.17107338498e-12
6.07986758555e-13
2.01281513614e-12
1.08064910029e-12
3.39078384367e-12
1.88112500354e-12
5.60274185294e-12
3.20884152118e-12
9.08761596944e-12
5.36750220793e-12
1.44751079967e-11
8.80801335318e-12
2.26437589624e-11
1.41816727711e-11
3.47924667773e-11
2.24055830384e-11
5.25257066688e-11
3.47405716808e-11
7.79358232416e-11
5.28732192168e-11
1.1365452943e-10
7.89836518728e-11
1.62857489992e-10
1.15783069313e-10
2.29222409204e-10
1.66515657865e-10
3.16859212757e-10
2.34940265035e-10
4.30226709441e-10
3.25302361279e-10
5.74111018131e-10
4.42346542173e-10
7.53657077892e-10
5.91355372114e-10
9.74609155748e-10
7.78371250019e-10
1.2435321368e-09
1.01029159769e-09
1.56736679362e-09
1.2939859766e-09
1.95345520416e-09
1.63646985666e-09
2.40745024243e-09
2.04210685236e-09
2.93321049334e-09
2.50958411547e-09
3.60681757807e-09
3.16282506033e-09
)
;

boundaryField
{
    inletfuel
    {
        type            calculated;
        value           uniform 0;
    }
    inletair
    {
        type            calculated;