/*--------------------------------*- C++ -*----------------------------------*\
  =========                 |
  \\      /  F ield         | OpenFOAM: The Open Source CFD Toolbox
   \\    /   O peration     | Website:  https://openfoam.org
    \\  /    A nd           | Version:  dev
     \\/     M anipulation  |
\*---------------------------------------------------------------------------*/
FoamFile
{
    version     2.0;
    format      ascii;
    class       volScalarField;
    location    "0.3";
    object      edc::R_C2H6;
}
// * * * * * * * * * * * * * * * * * * * * * * * * * * * * * * * * * * * * * //

dimensions      [1 -3 -1 0 0 0 0];

internalField   nonuniform List<scalar> 
1629
(
-2.01942691059e-22
-2.44408406638e-22
-3.05328782155e-22
-4.56147654852e-20
-8.5399173973e-20
-2.50176492941e-19
-4.81241341559e-18
-1.50946103565e-17
-9.78554622211e-17
-3.21555864897e-16
-1.62491029948e-15
-1.745309716e-14
-8.50371196883e-15
-8.61515559837e-15
1.24232134692e-12
5.95255365639e-12
8.86094263893e-11
2.28689466385e-09
6.24161277853e-09
8.49458921948e-08
1.70414414594e-06
2.09047453421e-06
2.56455069361e-05
0.000459495516345
2.00117757427e-05
0.000124310927674
0.00100149575976
7.05895540751e-05
0.000250270534617
0.00107524238633
0.000144481651461
0.000332686613604
0.000873304531166
0.000216603169163
0.000374437557729
0.000752430909745
0.00028051724148
0.000422363159547
0.000813478325614
0.000331593011397
0.000462845013833
0.000857035900411
0.000367782172811
0.000497507370418
0.000908711481496
0.000383116658135
0.000506061419553
0.000895227080749
0.000373690267624
0.000482802074977
0.00081574131303
0.000341714634516
0.00043276496391
0.000691200776418
0.000296767038547
0.000368143058124
0.000563604042615
0.00025253110893
0.000309403710741
0.000468759453956
0.00022055945311
0.000272818996167
0.000422993821626
0.000203076743619
0.000255399801264
0.000407659823609
0.000194388096608
0.000245919508717
0.000393007842577
0.000188193256898
0.000236252038444
0.000369373280691
0.000182139993866
0.00022557464321
0.000342745937934
0.000177924891173
0.000217626797576
0.00032311621992
0.000178764092071
0.000216981044426
0.000317256729795
0.000187464226531
0.000225662215791
0.000325506423137
0.00020419584038
0.000243019627266
0.000343514338814
0.000227269217825
0.000266703322461
0.000367022912316
0.000253301462526
0.000292741732918
0.000390616360929
0.000278592395502
0.000316965277516
0.000410550122442
0.000300912095465
0.000337691799508
0.000426956320585
0.000318919432018
0.000354179838271
0.000440449578265
0.000333701115766
0.000368874829892
0.000454074623385
0.000350806983691
0.000386483829424
0.000473191614005
0.000377899303231
0.000415738237001
0.000507837026125
0.00042554171248
0.000467285281321
0.000568937105602
0.000503647686642
0.000551568507936
0.000667262324468
0.000620197589085
0.000675784195363
0.000808380175679
0.000778331512164
0.000842096394357
0.000994116991984
0.000979223943159
0.00105281590695
0.00122664229662
0.00122887513035
0.00131366904876
0.00151251455598
0.00153570167986
0.00163291223955
0.00185903500344
0.00189835064378
0.00200738080087
0.00225830412181
0.0022805105209
0.0023964311674
0.00265960188621
0.00257425198683
0.00268537090288
0.00293301482841
0.00257018856539
0.00265753812762
0.00284636030129
0.00199324878414
0.00203621042794
0.00212180374665
0.000689073144977
0.000678337318359
0.000643652246564
-0.00110567046789
-0.00115718962769
-0.00127899161311
-0.00274944375409
-0.00281208621547
-0.00295333171103
-0.00362720015066
-0.00367464793519
-0.00377833932605
-0.00358323526117
-0.0036063228177
-0.00365506486497
-0.00291153681971
-0.00291617455178
-0.00292525917154
-0.00205053912731
-0.00204757458083
-0.0020404989256
-0.00131099461771
-0.00130719232285
-0.00129894898313
-0.000796400694921
-0.000794206487606
-0.00078943788688
-0.00047688031298
-0.000476069491266
-0.000474347366753
-0.000283517026109
-0.000283310538197
-0.000282859975439
-0.000161447155457
-0.000161326596159
-0.000161043766002
-8.25148419534e-05
-8.23646055798e-05
-8.20183067624e-05
-3.62486119546e-05
-3.61376280506e-05
-3.5882359697e-05
-2.38296315092e-14
3.62332587719e-11
3.25697142041e-08
2.02137792426e-05
0.00569476568678
0.00540991027513
0.00319461198074
0.00168744863169
0.00143493885111
0.00191888376191
0.00195132387254
0.00212129939092
0.00195117329347
0.00163894506284
0.00127873607906
0.000980863220494
0.000804226846241
0.000754593184424
0.00074557618246
0.000706647628098
0.00063966846474
0.000571724709475
0.000525133971324
0.000507453819144
0.000511895555523
0.000527553677444
0.000545290328669
0.000560014082753
0.000570108308531
0.000577795270913
0.000586194944355
0.000598196340948
0.000620330741602
0.00066344315357
0.000740077624465
0.000859166471291
0.0010255448023
0.00123986282769
0.00150456633403
0.00182702179468
0.00221210882486
0.00264374617376
0.00305526463563
0.00329445484459
0.00310946752612
0.00222557753347
0.0005725601463
-0.00146780126261
-0.00315908887729
-0.00392292966443
-0.00371966238973
-0.00293534364259
-0.00202960487725
-0.00128735837191
-0.00078304699734
-0.000472121827011
-0.000282277074432
-0.000160628637971
-8.15033234074e-05
-3.55046400401e-05
3.64216856633e-22
1.61035002188e-21
4.13958156721e-21
6.01399571533e-21
4.38226985399e-21
1.97780772226e-21
6.36026923035e-22
1.56699891965e-22
3.10178326483e-23
5.0557772673e-24
6.86137031601e-25
7.80936619379e-26
7.49646901066e-27
6.10255698754e-28
4.24028533939e-29
2.53674977775e-30
1.32382114591e-31
6.12393630525e-33
2.5900845274e-34
9.25354506121e-36
-7.26129877005e-18
-8.27048869868e-18
-2.30134029033e-18
-2.07218178151e-19
7.91148896474e-20
3.53095384061e-20
9.20161773233e-21
1.90504058403e-21
3.2810432554e-22
4.73740744054e-23
5.76890618987e-24
5.96207780491e-25
5.25941512217e-26
3.98371499379e-27
2.61004311218e-28
1.49432772472e-29
7.59732032312e-31
3.4987554297e-32
1.48490747287e-33
5.24148505054e-35
-4.4599570597e-14
-1.52951481401e-14
-3.98060355017e-16
2.7806464277e-17
8.02781589708e-18
7.78443093493e-19
9.85223285593e-20
1.46922219973e-20
2.20928725614e-21
2.8994209294e-22
3.2464410514e-23
3.11243825575e-24
2.56982948685e-25
1.83887227284e-26
1.14967928702e-27
6.35500651127e-29
3.16415120764e-30
1.45926858965e-31
6.26633923987e-33
2.07271582347e-34
4.14394435414e-14
8.27339838211e-15
5.5018651816e-15
9.45862016011e-17
1.88025622834e-16
4.71429835312e-17
1.6198650934e-18
9.17387497551e-20
1.36247176135e-20
1.68650011052e-21
1.8003805808e-22
1.652100252e-23
1.31288076232e-24
9.095997688e-26
5.54139323518e-27
3.00697689294e-28
1.48391457798e-29
6.88635161391e-31
3.0550622937e-32
1.15973424507e-33
2.82992604269e-10
3.66626978937e-11
3.26285469696e-12
7.14648647195e-13
5.39894412483e-14
2.56704769468e-15
3.00485210846e-17
5.02342381529e-19
4.63358793874e-20
9.11687897559e-21
9.71080027666e-22
8.66234106363e-23
6.70426391416e-24
4.55089924557e-25
2.73285629747e-26
1.47092982151e-27
7.25227518142e-29
3.3999842512e-30
1.56326412745e-31
7.09106148332e-33
5.50612749985e-07
3.86323257127e-07
3.29000028847e-09
1.18160792152e-10
4.31085927382e-12
1.1125380629e-13
1.11992912778e-15
-2.76094545817e-17
-1.15623051285e-18
2.52662634852e-20
4.617257732e-21
4.23813759103e-22
3.24100569182e-23
2.17665385526e-24
1.29962709596e-25
6.98915554435e-27
3.45996851671e-28
1.63949536633e-29
7.71074118564e-31
3.77606790131e-32
0.000419180923421
0.000383826240397
4.10903760754e-06
5.00155734933e-08
3.63279954766e-10
2.42494823536e-12
-5.07716502757e-14
-2.66140091344e-15
-6.10161233117e-17
-8.75420692633e-19
1.18222685463e-20
1.81942998246e-21
1.43877554319e-22
9.69699141586e-24
5.81253998417e-25
3.14558154294e-26
1.56979249251e-27
7.50741661759e-29
3.55747234715e-30
1.75950294203e-31
0.141002592538
-0.0277536640139
0.000806628523443
-4.5428023047e-07
-4.47594460685e-09
-1.26241202093e-10
-4.54809048061e-12
-1.03906879121e-13
-1.75802659357e-15
-2.33423376273e-17
-1.93556015046e-19
5.51467916097e-21
5.66904148385e-22
3.95018267842e-23
2.40775791228e-24
1.32224181791e-25
6.68112401463e-27
3.22157772261e-28
1.52289438776e-29
7.27991710078e-31
0.0490037728958
1.11775483686
-0.000561403023908
-5.26754966818e-06
-6.96764594535e-08
-1.2141258702e-09
-4.29861255652e-11
-1.21958268489e-12
-2.40068038598e-14
-3.46725517343e-16
-3.88245988854e-18
-7.95400500581e-21
1.84773499151e-21
1.45155598943e-22
9.15760299975e-24
5.15107827241e-25
2.64872390516e-26
1.28830859221e-27
6.04665267127e-29
2.72171162732e-30
0.0117848899146
0.153006239841
-0.000260860540477
-3.22574044412e-06
-1.18570794864e-07
-3.5241221891e-09
-1.77331553124e-10
-7.3506974486e-12
-1.92658882177e-13
-3.45083106091e-15
-4.46489768898e-17
-3.70710896727e-19
3.52474270914e-21
4.73800971142e-22
3.19143145866e-23
1.85613702037e-24
9.76245687097e-26
4.7974496044e-27
2.23317794614e-28
9.35161287373e-30
0.00324734831394
0.0151327335451
-0.000109137503349
-7.75269521023e-06
-3.76042977406e-07
-1.40853060111e-08
-7.45742091067e-10
-3.68442539584e-11
-1.23004291357e-12
-2.68065033519e-14
-3.97897289747e-16
-4.26733415558e-18
-1.55059151275e-20
1.29909608274e-21
1.02044954837e-22
6.20357211578e-24
3.35212969887e-25
1.66786031891e-26
7.70778707217e-28
2.99268618235e-29
0.00522049782147
0.314172752796
-0.0926034120263
-0.000485679335702
-1.12805995835e-05
-1.81898743161e-07
-4.83372649614e-09
-2.08522896138e-10
-7.33986154144e-12
-1.7122324227e-13
-2.9508473729e-15
-3.62245080446e-17
-2.71279053472e-19
2.15764402719e-21
2.97838829092e-22
1.93284007499e-23
1.07731780897e-24
5.43904729572e-26
2.50063580977e-27
9.01561872311e-29
0.0109058342477
0.624998771166
-0.0830290078936
0.00068851821335
-2.05346789803e-05
-5.40980681894e-07
-1.3235261431e-08
-6.90555831603e-10
-2.89040677636e-11
-8.98424252437e-13
-1.77421858172e-14
-2.47650425326e-16
-2.40806264791e-18
-6.85469375267e-21
7.66521754827e-22
5.63856582194e-23
3.25950204013e-24
1.67359191114e-25
7.67503799612e-27
2.58110593404e-28
0.00877836615432
0.247902100116
-0.0970369986489
0.00193251841919
-5.71541727563e-06
-4.62930991506e-07
-1.91420201284e-08
-1.37600556815e-09
-8.6480905079e-11
-3.31748256347e-12
-8.28305511794e-14
-1.345186452e-15
-1.57168087084e-17
-1.02695242694e-19
1.50423600043e-21
1.54057028315e-22
9.34052294987e-24
4.88969646704e-25
2.24342021411e-26
7.08390291826e-28
0.00966670815624
0.221901172499
-0.110947133499
0.00907644771258
2.49535603905e-05
1.34505249847e-09
-1.83987218533e-08
-2.12156482281e-09
-1.87169626644e-10
-9.81671538301e-12
-3.11079295668e-13
-6.08353579142e-15
-8.38325893296e-17
-7.29842369492e-19
3.89236770901e-22
3.90152535429e-22
2.54875945531e-23
1.36487011842e-24
6.285051961e-26
1.87811739127e-27
0.00743170488329
0.105065306863
0.574625473384
-0.063681015886
0.000329383548781
3.16173779639e-07
-5.86807610592e-08
-3.88329432171e-09
-3.8351590772e-10
-2.40545347559e-11
-9.48049349853e-13
-2.35757031362e-14
-3.79304995508e-16
-4.05817121574e-18
-1.7944321217e-20
8.81441196491e-22
6.6414296601e-23
3.65857760651e-24
1.69689604872e-25
4.84042427804e-27
0.00540173446133
0.0597394137171
0.635416510643
-0.0993213537026
0.00037603280788
-7.79089050584e-06
-2.05809457138e-07
-6.80435664101e-09
-6.85511947626e-10
-5.6109850289e-11
-2.72469157147e-12
-7.89204114771e-14
-1.49026831066e-15
-1.88092730724e-17
-1.33019817338e-19
1.55941382403e-21
1.64886512271e-22
9.44838575244e-24
4.43293074972e-25
1.21833155335e-26
0.0036378736934
0.0297195285268
0.306770396189
-0.118247035947
-6.34575773303e-05
-6.44633183136e-06
-2.36222978423e-07
-8.60515632004e-09
-9.90219545593e-10
-9.51034805177e-11
-6.23434969064e-12
-2.30694751962e-13
-5.0364565671e-15
-7.6018489052e-17
-6.88541619233e-19
7.9116937002e-22
3.86086851975e-22
2.35353628686e-23
1.1232112796e-24
3.00359018249e-26
0.00253198263152
0.0171373350198
0.176556961645
-0.124336314515
0.00116300772451
-1.19461299981e-06
-1.25668750746e-07
-9.43808407797e-09
-1.22601034178e-09
-1.59983866374e-10
-1.27738625455e-11
-6.01844493646e-13
-1.55874200469e-14
-2.74843676993e-16
-2.9968042359e-18
-1.07885705703e-20
8.32703147388e-22
5.65164511557e-23
2.76372951346e-24
7.2637573077e-26
0.00207581528781
0.0142354270748
0.165336495695
-0.126051409758
0.00525840777877
9.45106848394e-06
-5.29867057442e-08
-1.00270990709e-08
-1.46220238465e-09
-2.39613980436e-10
-2.46071520122e-11
-1.26457079462e-12
-4.4611459209e-14
-9.05882409907e-16
-1.16621695791e-17
-7.39304860189e-20
1.56199652803e-21
1.30589303978e-22
6.6080105571e-24
1.72413696075e-25
0.00208888567832
0.015481858519
0.1802131338
-0.0782644178527
-0.0198266173926
0.000816010002571
2.62967458659e-06
-8.56236001263e-08
-3.66475336585e-09
-4.28955606945e-10
-4.75464157063e-11
-3.04045613798e-12
-1.19031715166e-13
-2.765918197e-15
-4.09401726274e-17
-3.42748358615e-19
2.08995132084e-21
2.89173436666e-22
1.53589264357e-23
4.01684864883e-25
0.00210875045227
0.0145226598089
0.142536719615
0.111911695317
-0.0354816519761
0.00146525656084
-5.80290599954e-06
-2.46265818849e-07
-6.53376083952e-09
-6.88609756125e-10
-8.41950986054e-11
-6.80080787436e-12
-2.95563249299e-13
-7.92164132952e-15
-1.32726296837e-16
-1.34560583574e-18
-6.86013528243e-22
6.08086786792e-22
3.47020826196e-23
9.1823589911e-25
0.00189522382204
0.0108027045262
0.078822017088
0.180565812475
-0.0632189307392
0.000498316393491
-5.55084970113e-06
-1.96548486162e-07
-8.61580191911e-09
-9.14925130876e-10
-1.30196687845e-10
-1.20670809797e-11
-6.81721672225e-13
-1.99747103504e-14
-4.01279793244e-16
-4.75035523751e-18
-1.99257235819e-20
1.18982368098e-21
7.61517459612e-23
2.05803492025e-24
0.00159825483264
0.00763007586845
0.0440696948515
0.139231605889
-0.0800370479288
0.00118317793312
-2.6842802908e-06
-1.2462653699e-07
-9.65866349439e-09
-1.11633991031e-09
-1.83702285916e-10
-2.0340602005e-11
-1.45613293277e-12
-4.92803626366e-14
-1.13637109163e-15
-1.55830817596e-17
-1.02892859244e-19
2.06381011695e-21
1.619756755e-22
4.51751404956e-24
0.00135035380431
0.00568824627909
0.0288133392329
0.123744419673
-0.0869835287607
-0.00917540944675
0.000202345312585
-8.0624522213e-07
-5.28294409219e-08
-2.26024773233e-09
-2.84355110971e-10
-3.4010379766e-11
-2.51280948569e-12
-1.17162322218e-13
-3.03242706279e-15
-4.72990381189e-17
-4.02825617879e-19
2.72702658461e-21
3.32716011746e-22
9.69907731039e-24
0.00119988492456
0.00471902244748
0.023064848777
0.134457103515
-0.0938195229534
-0.00569840855483
0.000538705490345
-1.81439900773e-06
-1.50805838477e-07
-4.21182020022e-09
-4.43750689417e-10
-5.89053070831e-11
-4.5394471244e-12
-2.6277699768e-13
-7.63594628637e-15
-1.34545094937e-16
-1.37900919575e-18
5.02234109336e-22
6.55753004825e-22
2.0340637888e-23
0.00113591210919
0.00430445303756
0.0210107814701
0.136190501019
-0.0784236596894
-0.00975820962005
0.00120341166513
-6.36222940137e-06
-2.0004235243e-07
-5.99249933524e-09
-6.09875761235e-10
-8.73515000952e-11
-9.25503136671e-12
-5.46656789403e-13
-1.81347009885e-14
-3.60717325049e-16
-4.31725257694e-18
-1.46381827551e-20
1.22524783679e-21
4.16127303299e-23
0.00111463427009
0.00401692158474
0.0188917140383
0.116845179643
-0.0449027435723
-0.018502723355
0.00179762948666
-6.58283518228e-06
-1.58429524438e-07
-6.76719765874e-09
-7.3835327811e-10
-1.19633589889e-10
-1.561155436e-11
-1.06332277107e-12
-4.0351828153e-14
-9.16271148599e-16
-1.26084425521e-17
-7.51087269738e-20
2.11766151663e-21
8.29271659204e-23
0.00110069993912
0.0037107454277
0.0163757039447
0.0914805578221
-0.0148005709478
-0.0287078086877
0.00232266922117
-5.20051284943e-06
-1.19649809719e-07
-6.85476959447e-09
-8.16358200402e-10
-1.49618051826e-10
-2.10516271229e-11
-1.93715668679e-12
-7.74237222916e-14
-2.21636349616e-15
-3.49201399184e-17
-2.7676914721e-19
3.19006572124e-21
1.6067125928e-22
0.00108135704103
0.00340926076169
0.014194558853
0.0724864787122
0.00478819947615
-0.0365604522463
-0.00574527769146
5.15504564772e-05
-1.79159733848e-06
-5.04936446826e-08
-1.76122110054e-09
-2.20123164297e-10
-3.09880012137e-11
-3.31618095003e-12
-1.56101984615e-13
-5.12359360951e-15
-9.13915647239e-17
-8.847736637e-19
3.39784701385e-21
3.01680493182e-22
0.00105375278315
0.00313611432693
0.0124191548032
0.058627045444
0.0215524631742
-0.0461634675081
-0.00294680214273
0.000207054002978
-3.71180858383e-06
-1.32900881445e-07
-3.18400146936e-09
-3.26288496357e-10
-4.71557873014e-11
-4.95837532489e-12
-3.11081052616e-13
-1.13394658038e-14
-2.27412311077e-16
-2.58990677471e-18
-1.21909960652e-21
5.45694119539e-22
0.00102430630176
0.00292460222956
0.011135899853
0.0491315794378
0.0345505478896
-0.0532517401028
-0.00338433430332
0.000684311531853
-6.88676934141e-06
-1.80006735684e-07
-4.7523207965e-09
-4.46774597183e-10
-6.73634285708e-11
-6.80811894555e-12
-5.93920245177e-13
-2.39510273127e-14
-5.39322058174e-16
-7.09212713308e-18
-2.29567901925e-20
9.40630762803e-22
0.00100399327322
0.00280324836603
0.0103543993958
0.0430709142334
0.0399667758834
-0.0556667807403
-0.004575571268
0.001225334062
-1.12991133625e-05
-2.28543853113e-07
-6.53976895261e-09
-5.64327094832e-10
-9.02491138696e-11
-1.12285728382e-11
-1.06294443468e-12
-4.83627755836e-14
-1.22077830615e-15
-1.83578946474e-17
-9.60509593016e-20
1.5128661272e-21
0.000998917455907
0.00276082608421
0.00986966043466
0.0385228505394
0.0398080405106
-0.0546397187424
-0.00552142074779
-0.00226226879006
-8.84729540263e-06
-6.34419073026e-07
-1.51988000325e-08
-8.31933334771e-10
-1.20705395225e-10
-1.84961046111e-11
-1.77887750336e-12
-1.04672328033e-13
-2.6455353404e-15
-4.51742338141e-17
-3.08839872343e-19
2.16557277133e-21
0.00100869643268
0.00275658031372
0.00939872483308
0.0338242158983
0.0346989938644
-0.0500877238506
-0.00726373872119
-0.00075477743377
-1.10358823988e-05
-1.4511328737e-06
-3.60841296414e-08
-1.29688772191e-09
-1.59613563342e-10
-2.51098405264e-11
-2.84001818387e-12
-1.50702156779e-13
-5.5042086458e-15
-1.0611252718e-16
-8.75153739645e-19
2.38952807938e-21
0.00104053098717
0.00279730814352
0.00904918792198
0.0300945660471
0.0309594793879
-0.0448866442092
-0.00954202673451
-0.000687269098252
-3.84749949863e-06
-2.59462068278e-06
-7.415690826e-08
-1.88500704069e-09
-2.06779120927e-10
-3.24064255375e-11
-4.27579012937e-12
-2.37198093145e-13
-1.09627469224e-14
-2.37563909209e-16
-2.28304616176e-18
5.23435417523e-22
0.00110773494652
0.00290680625004
0.00891160795052
0.02748677988
0.0277222757549
-0.0403478854026
-0.011571538448
-0.000814786925886
6.67223806211e-05
-4.17967622559e-06
-1.16660452768e-07
-2.74573225055e-09
-2.60284300621e-10
-4.16804331171e-11
-5.99660093696e-12
-3.97335594179e-13
-2.09376294921e-14
-5.07506731833e-16
-5.5900536116e-18
-8.01070739688e-21
0.00122266933992
0.00309691050956
0.00899225278381
0.0256560478544
0.0239632537177
-0.0367191080488
-0.0129309142741
-0.000935413896328
-0.000107605125374
-6.23322324506e-06
-1.74243726445e-07
-4.05927778597e-09
-3.24334304217e-10
-5.25420616838e-11
-7.62943124053e-12
-6.58442583125e-13
-3.84599289885e-14
-1.03758016645e-15
-1.29856768747e-17
-3.4716902918e-20
0.00139181410411
0.00336745000255
0.00924483604424
0.0241882235211
0.0195343916548
-0.0335777181501
-0.0136777697911
-0.000986478037254
-0.000429447645438
-3.73801976617e-06
-3.56983655222e-07
-8.03483196142e-09
-4.45472403688e-10
-6.49966595244e-11
-9.45272892949e-12
-1.0544786307e-12
-6.74654401961e-14
-2.03355642184e-15
-2.87939681466e-17
-1.06694543503e-19
0.00161498844735
0.00371132898838
0.00959484075207
0.0227070382065
0.0146305042651
-0.0305179905885
-0.0140233419183
-0.0010926158792
-0.000159640560632
-1.07051247769e-05
-6.97852990364e-07
-1.61595556445e-08
-6.36776798848e-10
-8.18493398639e-11
-1.21474782361e-11
-1.61779580169e-12
-1.13809919077e-13
-3.81913444514e-15
-6.10929466848e-17
-2.84277681178e-19
0.00189149646553
0.00412423882841
0.00997152650761
0.0209611563181
0.00949626198365
-0.0278113200206
-0.0138757161967
-0.00122017354313
-0.000134632827073
-2.36199872477e-05
-1.19169540726e-06
-2.95598992213e-08
-8.77554527822e-10
-9.88449576109e-11
-1.60536462385e-11
-2.25842770466e-12
-1.86434706358e-13
-6.8681534527e-15
-1.24126349078e-16
-6.94963314365e-19
0.00222563258581
0.00460084304562
0.0102941647907
0.0187728795113
0.00437860524547
-0.0252913674916
-0.0132552657286
-0.0013364223985
-0.000135116013097
-4.41667801196e-05
-1.73918785707e-06
-4.91410444909e-08
-1.14991656013e-09
-1.16141687267e-10
-1.93509851199e-11
-3.02127768641e-12
-2.79798025912e-13
-1.18490475078e-14
-2.41823899788e-16
-1.5965068743e-18
0.00262325331376
0.00511960396631
0.0104464801906
0.0159980612251
-0.000459368388823
-0.022879248497
-0.0122679591801
-0.00141429957619
-0.000129280380344
-9.36627487e-05
-2.00839539688e-06
-7.22999764098e-08
-1.58289636065e-09
-1.35044661629e-10
-2.25799116671e-11
-3.89631080684e-12
-3.70839155292e-13
-1.98335306945e-14
-4.52572365513e-16
-3.49052489771e-18
0.00307835045783
0.00562308820101
0.0102674447613
0.0125693105113
-0.00469352686086
-0.0205313825066
-0.0110683124854
-0.00144208823128
-0.00012144721563
-8.76672861127e-05
-1.11141278973e-06
-1.16273314429e-07
-2.51455908717e-09
-1.62523286579e-10
-2.62782954283e-11
-4.78349327415e-12
-4.67332517486e-13
-3.19967059327e-14
-8.14554722073e-16
-7.31547872463e-18
0.00355039832322
0.00599313073039
0.00954947997552
0.00852541634672
-0.00805058935513
-0.0182316246391
-0.00978935455223
-0.00141589356276
-0.000120818138339
-3.89291538732e-05
-5.21854573197e-06
-2.02032674808e-07
-4.55818408069e-09
-2.1054340927e-10
-3.00256967321e-11
-5.65446131488e-12
-5.7801360154e-13
-4.9705236624e-14
-1.40972029716e-15
-1.47485645329e-17
0.00393317159367
0.00602899699169
0.00805752156036
0.00404346548851
-0.0103814205677
-0.0159445442898
-0.00846004654817
-0.0013398688584
-0.000119236815403
-3.06248884858e-05
-1.39448685802e-05
-3.22332065242e-07
-7.86094938258e-09
-2.78610227712e-10
-3.44497111733e-11
-6.54208901093e-12
-7.08199441905e-13
-7.42633907938e-14
-2.34462448598e-15
-2.86453357266e-17
0.00402687340233
0.00545724473745
0.00563481234803
-0.000450220002588
-0.0115882984227
-0.0136645700675
-0.00705182638459
-0.0012376023952
-0.000115462386467
-2.55271447101e-05
-2.23211044192e-05
-4.96074710371e-07
-1.37415823029e-08
-3.82219632685e-10
-3.99391891828e-11
-7.43034133839e-12
-8.58008613718e-13
-1.0667784725e-13
-3.74816289241e-15
-5.36537660652e-17
0.00355019403647
0.00402229133035
0.00238866561053
-0.00431543298531
-0.0116863340829
-0.0114193977695
-0.00576753234578
-0.00110088735205
-0.000107961880552
-1.95179577298e-05
-2.83857997818e-05
-6.18216590961e-07
-2.57953868823e-08
-5.82881283265e-10
-4.73108591489e-11
-8.39493316537e-12
-1.02744613681e-12
-1.47511064847e-13
-5.76486890851e-15
-9.70282564696e-17
0.00226376933096
0.00169866225
-0.0011466111785
-0.00693067580691
-0.0108502062807
-0.00927086946117
-0.00460317304922
-0.00094078259003
-9.6981516702e-05
-1.35123490492e-05
-2.93239878129e-05
-8.2512467938e-07
-4.59660063261e-08
-1.00409709142e-09
-6.01404805753e-11
-9.57939988879e-12
-1.22228065648e-12
-1.96919161002e-13
-8.54504724699e-15
-1.69584390125e-16
0.00022767318516
-0.00107663898204
-0.00411076354361
-0.00800263578936
-0.00937067281562
-0.00729516774234
-0.0035768747431
-0.000772672202929
-8.37420911129e-05
-9.83073014524e-06
-2.06590047168e-05
-1.74385148577e-06
-7.11608391487e-08
-1.89978075967e-09
-8.57520447053e-11
-1.11806692376e-11
-1.45747275771e-12
-2.55086221955e-13
-1.22303071927e-14
-2.86607633892e-16
-0.00201106104013
-0.00346771214444
-0.00577696367631
-0.00770404017961
-0.00758343145349
-0.00555983775313
-0.00269997368946
-0.000610341738058
-6.94163665256e-05
-8.01620579119e-06
-1.39188856646e-05
-3.83301716226e-06
-1.01326573005e-07
-3.74065761535e-09
-1.32745031335e-10
-1.37824572477e-11
-1.76122079084e-12
-3.23133843743e-13
-1.69435915374e-14
-4.68505224958e-16
-0.0036564272338
-0.00474764218268
-0.00599793356877
-0.00652427529109
-0.00579013099283
-0.00410868803454
-0.00197516584473
-0.000463547004752
-5.52000855013e-05
-6.50379363006e-06
-1.07974048885e-05
-6.25512910586e-06
-1.52013872038e-07
-6.92627546733e-09
-2.16903884343e-10
-1.80120984035e-11
-2.18415864264e-12
-4.04237136811e-13
-2.27932099274e-14
-7.41084588097e-16
-0.00422776739343
-0.00478079435026
-0.00517844884311
-0.00501118483634
-0.00420608085523
-0.00295363637424
-0.00139875574544
-0.000329060804574
-4.38642812751e-05
-5.29823763371e-06
-8.35833988007e-06
-8.15586694411e-06
-2.5696966771e-07
-1.16063835992e-08
-3.60995926529e-10
-2.4670205477e-11
-2.80568972765e-12
-5.04303761522e-13
-2.98859764055e-14
-1.13542539828e-15
-0.0038318472796
-0.00397429452773
-0.00392852280824
-0.0035710557159
-0.00294080421865
-0.00207056750204
-0.000951045012023
-0.000224694412791
-3.29194582313e-05
-4.38021680355e-06
-6.07364437207e-06
-9.08012811178e-06
-4.36908430031e-07
-1.70961262899e-08
-6.03494366561e-10
-3.49525833695e-11
-3.74497777265e-12
-6.31803107315e-13
-3.8335824715e-14
-1.68731001895e-15
-0.00293535432626
-0.0028860947169
-0.00271630221198
-0.00241330093441
-0.00200105400989
-0.001406966515
-0.000614848005545
-0.000147665062835
-2.36928126129e-05
-3.54706304176e-06
-4.20929715281e-06
-9.01771113383e-06
-7.03274590304e-07
-2.22861168935e-08
-1.02628724317e-09
-5.10436779085e-11
-5.15754669517e-12
-7.95613801507e-13
-4.82407810516e-14
-2.43639732264e-15
-0.00199556175166
-0.00191019617667
-0.00176907221461
-0.00158201398768
-0.00133457020757
-0.000916577651656
-0.000377846675013
-9.31244412928e-05
-1.63903728278e-05
-2.76046032052e-06
-2.91460561867e-06
-8.21525475407e-06
-1.06258192182e-06
-2.88357840665e-08
-1.62902056705e-09
-7.5248492154e-11
-7.32254260019e-12
-1.00444236544e-12
-5.96466004851e-14
-3.42532173614e-15
-0.00125874666349
-0.00119946267672
-0.00112064263129
-0.00102413274611
-0.000868852397043
-0.000563993334705
-0.000221736188941
-5.59196240979e-05
-1.08057526974e-05
-2.06100297373e-06
-2.08695155377e-06
-7.08901833697e-06
-1.4529990464e-06
-4.30341348207e-08
-2.3761876695e-09
-1.12331431767e-10
-1.01060397105e-11
-1.26495210793e-12
-7.25305539449e-14
-4.70015516836e-15
-0.000768221124779
-0.000740558191549
-0.000706319301383
-0.000655722210802
-0.000542210684048
-0.000323143405449
-0.000123687202004
-3.17668594204e-05
-6.7544240341e-06
-1.47976671509e-06
-1.57105836268e-06
-5.94164322722e-06
-1.80387082046e-06
-7.56965885061e-08
-3.11773638072e-09
-1.72060262638e-10
-1.33443933726e-11
-1.58518545658e-12
-8.68225370205e-14
-6.31500247092e-15
-0.000466775029115
-0.000457168465065
-0.000442205519653
-0.000406426599868
-0.000314725517785
-0.000170594266382
-6.32826545511e-05
-1.73322173823e-05
-4.0593098763e-06
-1.03944570165e-06
-1.24518318125e-06
-4.92207193219e-06
-2.05185401987e-06
-1.34440797898e-07
-3.80634454373e-09
-2.60215997294e-10
-1.79323621906e-11
-1.9643270247e-12
-1.02516259163e-13
-8.34207021894e-15
-0.000280357225711
-0.000275760811276
-0.000263772917205
-0.000230847511959
-0.000162062014883
-8.37389120361e-05
-3.01668040705e-05
-8.94103594859e-06
-2.32681787302e-06
-7.19456691203e-07
-1.02678583309e-06
-4.0664381255e-06
-2.17107931585e-06
-2.11819499487e-07
-4.78124881641e-09
-3.72679569728e-10
-2.3865712785e-11
-2.38326375183e-12
-1.19759801451e-13
-1.08888788505e-14
-0.000159039551217
-0.000154347986801
-0.000142215931231
-0.000115206325794
-7.48190135318e-05
-3.64967127681e-05
-1.35221483269e-05
-4.35890163824e-06
-1.27294060299e-06
-4.98156602598e-07
-8.68899393611e-07
-3.35864582992e-06
-2.16657557393e-06
-2.93569685217e-07
-7.36488811413e-09
-4.93133365681e-10
-3.14269996937e-11
-2.81557019928e-12
-1.39111273602e-13
-1.41234425905e-14
-7.98694534591e-05
-7.53205460508e-05
-6.57256012736e-05
-5.00188869354e-05
-3.09908207987e-05
-1.41617197766e-05
-5.67079798842e-06
-2.00079589885e-06
-6.67460368218e-07
-3.51825674095e-07
-7.45337256531e-07
-2.7689066339e-06
-2.06164722671e-06
-3.65290359959e-07
-1.34147099377e-08
-5.99852734549e-10
-4.05774343989e-11
-3.21757706479e-12
-1.61362441797e-13
-1.84058189329e-14
-3.44125520342e-05
-3.16204586864e-05
-2.67668288209e-05
-1.88908815224e-05
-1.04865967249e-05
-5.14758686962e-06
-2.23435617943e-06
-8.71060422694e-07
-3.42108452841e-07
-2.53127075103e-07
-6.21169745915e-07
-2.23891552105e-06
-1.93733060229e-06
-4.35078786912e-07
-2.53128479808e-08
-6.01877776999e-10
-5.06455653179e-11
-3.4446647264e-12
-1.8468888346e-13
-2.4439984752e-14
5.75333648885e-33
2.90777890279e-33
3.79319721943e-33
5.19650418831e-38
8.06701834728e-33
6.15915703738e-33
2.59079725484e-32
1.81874223044e-32
8.80620998856e-32
4.62699732272e-32
2.92247018721e-31
1.12093357892e-31
9.24845131963e-31
2.57831110803e-31
2.7773263632e-30
5.51065176241e-31
7.95146205678e-30
1.04034354462e-30
2.1890203822e-29
1.46944134578e-30
5.8453506324e-29
0
1.52490966896e-28
0
3.90750489645e-28
7.51806936108e-30
9.87185281656e-28
4.70355313436e-29
2.46415820846e-27
1.78497437307e-28
6.08191313583e-27
5.74917160983e-28
1.48394788611e-26
1.70041906862e-27
3.57649218711e-26
4.75978194855e-27
8.50474242632e-26
1.27861814002e-26
1.99229570768e-25
3.31892089255e-26
4.58998572852e-25
8.35043813638e-26
1.03816811079e-24
2.03888381016e-25
2.30123206579e-24
4.83296773965e-25
4.99138710083e-24
1.11215514446e-24
1.05791308734e-23
2.48378492658e-24
2.18811856577e-23
5.37894508808e-24
4.41018464657e-23
1.12829864673e-23
8.64229548083e-23
2.28856058723e-23
1.64048140625e-22
4.47414163049e-23
2.99767547483e-22
8.37831756791e-23
5.21437844311e-22
1.48276606552e-22
8.44207098037e-22
2.40694653968e-22
1.20715103271e-21
3.30613325887e-22
1.28684207549e-21
2.69090246097e-22
-5.3937441512e-25
-4.58355907007e-22
-5.74528297439e-21
-3.39825983611e-21
-2.39764177725e-20
-1.2833909618e-20
-7.41938359089e-20
-3.99179287638e-20
-2.01291509597e-19
-1.12239906853e-19
-5.04129309636e-19
-2.95066512904e-19
-1.19152361785e-18
-7.3644693914e-19
-2.68584611736e-18
-1.75816236214e-18
-5.80384158447e-18
-4.02921271603e-18
-1.20563325728e-17
-8.87901670051e-18
-2.41178155932e-17
-1.88308523647e-17
-4.65053720974e-17
-3.84474247188e-17
-8.64548818761e-17
-7.55516309319e-17
-1.54905514973e-16
-1.42803186636e-16
-2.67432285793e-16
-2.59490263156e-16
-4.44974523295e-16
-4.53357618468e-16
-7.14260832199e-16
-7.62326629982e-16
-1.10824451798e-15
-1.23658700638e-15
-1.6671769031e-15
-1.94227991642e-15
-2.44245025194e-15