/*--------------------------------*- C++ -*----------------------------------*\
  =========                 |
  \\      /  F ield         | OpenFOAM: The Open Source CFD Toolbox
   \\    /   O peration     | Website:  https://openfoam.org
    \\  /    A nd           | Version:  dev
     \\/     M anipulation  |
\*---------------------------------------------------------------------------*/
FoamFile
{
    version     2.0;
    format      ascii;
    class       volScalarField;
    location    "0.3";
    object      edc::YStar_CO2;
}
// * * * * * * * * * * * * * * * * * * * * * * * * * * * * * * * * * * * * * //

dimensions      [0 0 0 0 0 0 0];

internalField   nonuniform List<scalar> 
1629
(
4.89054192349e-17
4.66715010904e-17
3.80276400305e-17
6.72706992077e-15
9.25990521117e-15
1.60538598459e-14
5.00207904179e-13
1.06189951895e-12
3.88182605596e-12
2.7688992411e-11
8.84605690181e-11
6.213915484e-10
1.06261847142e-09
3.54940786888e-09
2.01770057388e-08
4.0319813545e-08
1.46595900483e-07
7.54005778464e-07
1.17587218526e-06
4.34283178132e-06
2.01694431992e-05
2.05344268717e-05
7.25271407703e-05
0.00031489842268
9.45144166323e-05
0.000258478040355
0.000833018345116
0.000270139937299
0.000585431474606
0.00148094945692
0.000585604842943
0.0010476076881
0.00218526664158
0.00106086691964
0.0016397543535
0.00295634616616
0.00170151047623
0.00236532966564
0.00382419368913
0.00250087145735
0.00322018105394
0.00477820979878
0.00343973962056
0.00418652384487
0.00579076833091
0.0044922420015
0.00524332306222
0.00684958442551
0.00563742759855
0.00637893331667
0.00796449690851
0.00686266476709
0.00758803885168
0.00914196995555
0.00815885971946
0.00886389974199
0.0103757143378
0.00951469880097
0.0101944363882
0.0116506237832
0.0109173322876
0.0115668837429
0.0129562146256
0.0123587305142
0.0129757226497
0.0142946361352
0.0138390787564
0.0144241087052
0.0156753950224
0.0153616616722
0.0159162696999
0.01710347641
0.0169261273476
0.0174507803649
0.0185743506696
0.0185284927401
0.0190226006283
0.0200808961943
0.0201668875249
0.0206304273625
0.0216237000246
0.021842796907
0.0222768071678
0.0232077490785
0.0235564005393
0.023962044631
0.0248331968768
0.0253017228974
0.0256793457112
0.026491169542
0.0270679638888
0.0274172990463
0.0281689807821
0.0288459471825
0.0291672953943
0.0298594861504
0.0306310075559
0.0309257975492
0.0315617109885
0.0324209951444
0.0326913372164
0.0332755359276
0.0342134404752
0.0344613266883
0.0349979017425
0.0360047960458
0.0362317962035
0.0367238481753
0.0377903544382
0.0379977673753
0.0384478858431
0.0395649889673
0.0397541366403
0.0401650622495
0.0413244186907
0.0414968005984
0.0418717185053
0.0430666425551
0.0432239031719
0.0435663230725
0.0447922862795
0.0449360892422
0.0452495499151
0.0465026670163
0.0466345037311
0.0469221603944
0.0481973250315
0.048318367109
0.0485826759875
0.0498731082559
0.0499842028952
0.0502269290408
0.0515258293617
0.0516276490412
0.051850207501
0.0531534692107
0.0532467124631
0.053450605026
0.0547587014769
0.0548442085216
0.0550312632526
0.0563493766433
0.0564281018385
0.0566003970464
0.0579369690415
0.0580098505394
0.0581694201026
0.0595335842596
0.059601388164
0.0597498809598
0.061148142062
0.0612113535564
0.0613498017768
0.0627828417394
0.0628416643878
0.0629704940638
0.0644326027879
0.064487130163
0.0646065490159
0.0660894775733
0.0661399830265
0.0662506159661
0.0677478835376
0.0677949533805
0.0678981152847
0.0694057448271
0.0694501479243
0.0695475379028
0.0710641121263
0.0711066525843
0.0712000373632
0.0727393771071
0.0727811409818
0.0728729185421
0.0745070292794
0.0745503055665
0.0746455529274
0.0765084609949
0.0765562576908
0.076661605002
0.078994697838
0.0790509858286
0.0791751835986
0.0823068537174
0.0823758593309
0.0825282398456
0.0868189344852
0.0869078355381
0.0871045133148
3.47395455907e-09
8.24767660833e-08
2.63606245809e-06
6.79850955769e-05
0.00113219655344
0.00225752406929
0.00326351856768
0.00411488887475
0.00500592784954
0.00601385257933
0.00705628984445
0.00808065322106
0.00910444385153
0.0101767358351
0.0113052807524
0.0124721211847
0.0136566204013
0.0148587351474
0.0160960612854
0.0173841662201
0.018724624117
0.0201071542385
0.0215230325623
0.0229770825985
0.0244773887052
0.0260225917369
0.0276003948704
0.0291966965804
0.0308069478679
0.0324338127613
0.0340786616079
0.0357372982178
0.0374032183079
0.0390703580707
0.040734196375
0.0423918266665
0.0440421780454
0.0456859158031
0.0473232178215
0.0489516190735
0.0505660304563
0.0521613295059
0.0537358020139
0.0552930805053
0.0568417259852
0.0583930654383
0.0599580858231
0.0615439427151
0.0631511249882
0.0647739751012
0.0664057846817
0.0680429490134
0.0696844603729
0.071331541692
0.0730024179738
0.0747803323753
0.0768110525912
0.079351709677
0.0827450999248
0.0873852290237
2.09495330203e-13
1.03924933366e-12
2.55104601896e-12
3.72861253794e-12
3.12154154226e-12
1.67728186813e-12
6.35292044404e-13
1.80257027394e-13
4.02347027561e-14
7.26409053712e-15
1.07603620345e-15
1.32087584127e-16
1.35441538993e-17
1.16878584339e-18
8.55796996704e-20
5.3716975301e-21
2.93285292607e-22
1.41774066261e-23
6.17010376198e-25
1.41337043199e-26
3.65757213532e-12
1.72317680942e-11
4.99641609913e-11
8.07338345566e-11
6.33461199157e-11
3.01264466828e-11
9.92804730295e-12
2.45195337489e-12
4.81735171762e-13
7.72789102935e-14
1.02659010368e-14
1.14139286473e-15
1.07158352566e-16
8.56731766247e-18
5.88861801115e-19
3.52203537332e-20
1.86610861704e-21
8.95177937668e-23
3.86507657779e-24
8.80374336547e-26
6.88536637486e-11
1.74083241334e-10
5.85978334535e-10
1.03279739637e-09
7.50879636239e-10
3.17852316708e-10
9.2650798568e-11
2.04360378977e-11
3.62938476404e-12
5.30148592703e-13
6.46383890115e-14
6.65204014734e-15
5.83203736658e-16
4.39517251905e-17
2.87673906336e-18
1.65789620981e-19
8.58548712406e-21
4.11489417948e-22
1.78422218767e-23
3.84011391645e-25
2.31708867806e-09
2.10905197214e-09
6.42216289101e-09
1.06450769327e-08
7.04183226554e-09
2.71137996019e-09
7.21699304281e-10
1.47601926272e-10
2.44735831834e-11
3.36119254117e-12
3.88132364404e-13
3.80984981404e-14
3.20752396023e-15
2.33657556091e-16
1.48830294157e-17
8.41063659508e-19
4.31132192018e-20
2.07463446132e-21
9.22603237363e-23
2.39772799779e-24
1.31512154001e-07
6.97908242367e-08
1.02000105043e-07
1.22141024213e-07
6.81803618736e-08
2.33092536962e-08
5.60375300386e-09
1.0543906764e-09
1.62189192903e-10
2.0905366847e-11
2.29160445343e-12
2.15732202169e-13
1.75752644807e-14
1.24859330456e-15
7.81073686406e-17
4.36494102434e-18
2.22940573898e-19
1.08037047646e-20
4.93655874171e-22
1.60646425825e-23
6.85719809107e-06
7.03266250081e-06
2.80304999356e-06
1.60729735322e-06
6.68720604839e-07
1.9548409508e-07
4.19325943967e-08
7.13493878549e-09
1.01032619856e-09
1.22029341303e-10
1.27304704594e-11
1.15521064046e-12
9.16543978891e-14
6.39400485143e-15
3.95454318996e-16
2.19789921522e-17
1.1227379323e-18
5.47687725043e-20
2.53620882548e-21
9.30237585688e-23
0.000254440800521
0.000866637316174
0.00015473771044
3.17390589646e-05
7.28739761442e-06
1.56489387287e-06
2.83523844356e-07
4.3009727781e-08
5.61069147418e-09
6.39921413052e-10
6.42126655432e-11
5.68048026244e-12
4.43658273092e-13
3.06846988856e-14
1.8913548014e-15
1.05176431882e-16
5.39022454006e-18
2.64114751396e-19
1.2197093568e-20
4.68945379891e-22
0.00579883030325
0.0872755227138
0.00823864976823
0.000945791925724
9.29569781667e-05
1.09011357306e-05
1.51328700598e-06
2.05563933893e-07
2.54666608912e-08
2.83509245708e-09
2.81740095751e-10
2.48842788088e-11
1.94966299027e-12
1.35657450552e-13
8.42575265405e-15
4.72398909894e-16
2.43821942978e-17
1.19813244397e-18
5.45653087792e-20
2.09030809461e-21
0.00798476836647
0.0447016729147
0.00934867690672
0.00130458004228
0.000171625461962
2.48491170572e-05
4.00514613936e-06
6.16921346326e-07
8.38315099487e-08
9.96045048117e-09
1.03783235035e-09
9.50547872293e-11
7.66868966735e-12
5.46806285855e-13
3.46728863815e-14
1.97724966525e-15
1.03259179429e-16
5.08849708648e-18
2.27185626327e-19
8.39625680148e-21
0.00896419313889
0.0298153778386
0.00991497964121
0.00141868186849
0.000235219453804
4.20673272776e-05
8.01868511401e-06
1.43843035314e-06
2.22324609319e-07
2.92204361719e-08
3.29159969242e-09
3.2042891299e-10
2.71369695035e-11
2.01244003504e-12
1.31724803543e-13
7.69973573464e-15
4.08709692234e-16
2.02196503878e-17
8.83209957358e-19
3.09640005949e-20
0.00932945610427
0.0221154321562
0.0112880100216
0.00204590534154
0.000412383634977
7.9481596258e-05
1.61277543528e-05
3.16398076442e-06
5.39761983201e-07
7.76331225346e-08
9.45039401376e-09
9.82434034805e-10
8.79371836237e-11
6.83081609434e-12
4.64501258867e-13
2.79736150583e-14
1.51445496379e-15
7.53289917651e-17
3.22051210335e-18
1.06370588016e-19
0.0102482396651
0.0262192964877
0.0789745156423
0.00844869567731
0.00138916516273
0.000220835587894
3.86994741006e-05
7.31600515999e-06
1.29024288539e-06
1.96465064904e-07
2.54331214516e-08
2.80514589544e-09
2.65066181429e-10
2.16012161689e-11
1.5301673015e-12
9.52102422219e-14
5.27000953416e-15
2.64000528482e-16
1.1068168539e-17
3.44104645666e-19
0.011547394446
0.0295109117397
0.0991687529004
0.0138983192888
0.00249163390676
0.000435262890029
7.87651988368e-05
1.52951106784e-05
2.84647704934e-06
4.62179884798e-07
6.37678703385e-08
7.46940591416e-09
7.46033735486e-10
6.39001195771e-11
4.72578991222e-12
3.04514660776e-13
1.7272203613e-14
8.73357357292e-16
3.60198668481e-17
1.05745406735e-18
0.0126454661768
0.0284728721054
0.0589814597862
0.0162295350505
0.00331738539779
0.000670739749802
0.000133994423508
2.7957652159e-05
5.62814177567e-06
9.90890397107e-07
1.47327476734e-07
1.84572708131e-08
1.95799624209e-09
1.7692088168e-10
1.37030661904e-11
9.16970976327e-13
5.34443773507e-14
2.73580730819e-15
1.11472358789e-16
3.10946373276e-18
0.013511710279
0.0269094573472
0.0485421326768
0.0188530287454
0.00464568599727
0.00107201037181
0.000225854631626
4.87848753968e-05
1.04074358395e-05
1.97395287153e-06
3.16373258885e-07
4.25030070596e-08
4.8041413427e-09
4.59396034837e-10
3.73777640168e-11
2.60514745466e-12
1.56504932288e-13
8.13953252542e-15
3.2932440929e-16
8.80079723289e-18
0.0143356815817
0.0263846982277
0.0472595618502
0.082803456734
0.010740998855
0.00212214999539
0.000414984863332
8.61366103515e-05
1.86431611949e-05
3.73183072866e-06
6.39663491434e-07
9.19543207773e-08
1.10794580007e-08
1.12310872182e-09
9.6210002501e-11
7.00264283088e-12
4.34966180527e-13
2.30721086533e-14
9.32091689568e-16
2.40894852838e-17
0.0152738898909
0.0269664652286
0.0508696264503
0.111033971835
0.0165175282588
0.00326617873182
0.000657274694228
0.000139208645439
3.11672000829e-05
6.61531174537e-06
1.21546903513e-06
1.8730920865e-07
2.40993710753e-08
2.59443983751e-09
2.34490603764e-10
1.78670571395e-11
1.15096048015e-12
6.25102496478e-14
2.53585633228e-15
6.40148975634e-17
0.0162612583525
0.0273303819831
0.047454696271
0.0699773735441
0.0194012061498
0.00417181498888
0.000905679534717
0.0002041180661
4.83617363538e-05
1.098383044e-05
2.17433081144e-06
3.60451821431e-07
4.96429115034e-08
5.68696636367e-09
5.43348599876e-10
4.34356686285e-11
2.90997141471e-12
1.62430420177e-13
6.65314470836e-15
1.65691098918e-16
0.0172266661096
0.0273413806232
0.0430084310684
0.0558785080895
0.0216268179095
0.00518305020829
0.00123442889236
0.000294690361215
7.30503146367e-05
1.75800093233e-05
3.72916327874e-06
6.63439529634e-07
9.77189860357e-08
1.19112241137e-08
1.20375004414e-09
1.01092541092e-10
7.05907587768e-12
4.06289899835e-13
1.68877910248e-14
4.18912711487e-16
0.0181487142004
0.027229833137
0.0397745874722
0.051209954207
0.0247181462004
0.00703717492519
0.00187100025313
0.000458340627932
0.000113848038053
2.81433941982e-05
6.282245441e-06
1.18738656101e-06
1.85982668757e-07
2.40471827752e-08
2.56711922889e-09
2.26493356402e-10
1.65053675811e-11
9.82054783976e-13
4.1606582731e-14
1.03718968539e-15
0.0190802379037
0.0274067454426
0.0391330534854
0.0560020804786
0.103419368301
0.015320499502
0.00346676801906
0.000787278963079
0.000185618073159
4.55040701568e-05
1.04799720399e-05
2.08183328585e-06
3.44588026476e-07
4.70831952113e-08
5.29859225465e-09
4.90817175861e-10
3.73523740317e-11
2.30201089128e-12
9.97859473691e-14
2.52017867102e-15
0.0200811444552
0.027958408777
0.0397528420043
0.0601666397785
0.109684933786
0.0219435948353
0.00508192892214
0.00118946993227
0.000284133378198
7.07940166988e-05
1.69341700476e-05
3.54219004782e-06
6.19708402661e-07
8.94388687723e-08
1.06057032951e-08
1.03148764526e-09
8.20438421341e-11
5.24690211141e-12
2.33498404538e-13
6.01880167657e-15
0.021162145957
0.028662875625
0.039870067022
0.0567796521849
0.0724773266301
0.0254427000212
0.00648579736665
0.00163515416945
0.000409142609324
0.000105388454182
2.63479079748e-05
5.82257570926e-06
1.07900058847e-06
1.64695223596e-07
2.05951386647e-08
2.10482251141e-09
1.75190246397e-10
1.16482307599e-11
5.33896965899e-13
1.41403216099e-14
0.0223031332876
0.0293800310308
0.0395378279149
0.0526544641566
0.0618636530798
0.0288555842292
0.00857393220273
0.00235671434196
0.000605653503299
0.000157327827983
4.04096241632e-05
9.35238241484e-06
1.8289537482e-06
2.94833613617e-07
3.88701719831e-08
4.17633771987e-09
3.64148359623e-10
2.52171986362e-11
1.19398826988e-12
3.26882907552e-14
0.0234809931571
0.0300983103559
0.0392659098001
0.0505421269888
0.0608901413652
0.0872270175128
0.0155402359576
0.00386309044739
0.000952140670519
0.00024018388124
6.18314881775e-05
1.47869114862e-05
3.03193862679e-06
5.14647991874e-07
7.14477956932e-08
8.0699144707e-09
7.37690310298e-10
5.32870975397e-11
2.61322326828e-12
7.43459093503e-14
0.0246894507107
0.0308665211216
0.039320305294
0.0500943999608
0.063449283978
0.113538688002
0.0229325582055
0.00563719743328
0.00139460176023
0.000351728730852
9.16736022841e-05
2.27039100469e-05
4.88553158029e-06
8.73838913642e-07
1.27828276384e-07
1.51893223126e-08
1.45721977761e-09
1.09966583011e-10
5.59902665676e-12
1.66299985857e-13
0.025946379765
0.0317509425866
0.0397559192839
0.050499923941
0.0659990853898
0.105898396979
0.0290685490693
0.00740720366126
0.00188390989597
0.000486394271354
0.000130178139391
3.35971208055e-05
7.61617382156e-06
1.43953121874e-06
2.22352350326e-07
2.78413319555e-08
2.80734756906e-09
2.21675693257e-10
1.17446711882e-11
3.65660580166e-13
0.0272640615377
0.0327424720591
0.0403269020155
0.0504621359499
0.0638307072671
0.0788260268312
0.0332639560294
0.00929412357536
0.0024914562684
0.000662653235135
0.0001815256849
4.85973996587e-05
1.15773837554e-05
2.31101438207e-06
3.77019992273e-07
4.9777393685e-08
5.28019516664e-09
4.36797835323e-10
2.4125205191e-11
7.90022342737e-13
0.0286337249741
0.0337855624857
0.0408504113493
0.049898365595
0.0602526713078
0.0660790644873
0.0369586202264
0.0119079103977
0.00344199618285
0.000935343934188
0.000256999903928
7.01780074978e-05
1.73922508988e-05
3.64668784885e-06
6.26588265227e-07
8.71152289265e-08
9.71751478435e-09
8.42430249959e-10
4.85612517431e-11
1.67694131174e-12
0.0300349122592
0.0348430061256
0.0413509466437
0.049437813919
0.0584653985818
0.0647667253233
0.0951708172945
0.0193929261577
0.00518306326044
0.00137281171147
0.000369973816986
0.000101414066712
2.58934901543e-05
5.67217281299e-06
1.02338125439e-06
1.49567773943e-07
1.75289838797e-08
1.59220758996e-09
9.5848802634e-11
3.49692622883e-12
0.0314519551255
0.035909655247
0.0418967212961
0.0492919286325
0.0578821426386
0.0654768022254
0.113837387817
0.0272437180263
0.00723342160549
0.00192209614924
0.000517908628861
0.000143418050418
3.77626883927e-05
8.6442878466e-06
1.63782841256e-06
2.51629467871e-07
3.09838338416e-08
2.94921231085e-09
1.85513375781e-10
7.16113559878e-12
0.0328874160207
0.0370157904862
0.0425690465651
0.0495185742098
0.0580302352434
0.0671316560877
0.112722364292
0.0345085657037
0.00950564867594
0.00258323355685
0.000704508484185
0.000197935103357
5.37754889494e-05
1.28696060139e-05
2.56260503257e-06
4.14168240305e-07
5.36109010059e-08
5.35026498679e-09
3.51904688143e-10
1.43910361434e-11
0.0343519099986
0.0381879446131
0.0433882828785
0.0499988634057
0.0582901973794
0.067548341093
0.09948560585
0.0412498955107
0.0124418314329
0.00351580132894
0.000966297288641
0.000272325205221
7.56312645758e-05
1.88270285781e-05
3.93073917612e-06
6.67687736531e-07
9.08321485445e-08
9.5051081084e-09
6.53993726798e-10
2.83618969643e-11
0.0358489969632
0.0394235578194
0.0443092332908
0.0505667250486
0.0583749742637
0.0669282322443
0.0864237304874
0.0701567640153
0.0177741365163
0.00494667963032
0.00134739268202
0.000376062377573
0.000105607776972
2.71635031702e-05
5.92548120074e-06
1.05591174499e-06
1.50824137414e-07
1.65427901842e-08
1.1907345233e-09
5.47980588329e-11
0.037370683419
0.0406962747
0.0452604360372
0.0510848341103
0.0581709387142
0.0655820965424
0.0742618859745
0.0942071060598
0.0244679012582
0.0067671319982
0.00183915574563
0.000510792535074
0.000144939501105
3.84537122006e-05
8.75595352262e-06
1.63613314347e-06
2.45320978902e-07
2.81995616365e-08
2.12362442093e-09
1.03770923045e-10
0.0389065920892
0.0419868308455
0.0462190462006
0.051585493608
0.0580015811901
0.0647194605186
0.0705403303136
0.10937118442
0.0319534114133
0.00894112437271
0.00243882053192
0.000677569240435
0.000194525791505
5.32214737248e-05
1.2651258219e-05
2.47997625265e-06
3.90498734123e-07
4.70575328861e-08
3.70873304492e-09
1.92563848112e-10
0.0404497265733
0.0432911590058
0.0472006116694
0.0521479654252
0.058057495351
0.0644585858255
0.0697283073307
0.115506192099
0.0396834058857
0.0115688758929
0.00319831224131
0.000889892301324
0.000257513183973
7.23795937606e-05
1.79251014914e-05
3.68318102982e-06
6.08881708654e-07
7.69143750517e-08
6.34468262727e-09
3.50247849953e-10
0.0419970922787
0.0446136885389
0.0482273120321
0.0528186991418
0.0583562816207
0.0645574963998
0.0697287429672
0.113941305748
0.0478878078831
0.0149146369169
0.00422883538101
0.00117659968786
0.000340291573142
9.75075486707e-05
2.50420853701e-05
5.37996494889e-06
9.32385703118e-07
1.23351224699e-07
1.06457487944e-08
6.25004746415e-10
0.0435477696762
0.0459588547038
0.0493098008555
0.0536019121736
0.0588437890984
0.0648403111089
0.0699648527998
0.109429909621
0.0660673454849
0.0197744501055
0.00565376461236
0.00156619465583
0.000449580854668
0.000130382156895
3.45627631862e-05
7.74281513737e-06
1.40444597942e-06
1.94372459939e-07
1.75401649406e-08
1.09528478679e-09
0.0451016787604
0.0473276958358
0.050445361609
0.0544747080658
0.059444134238
0.0651716409014
0.0701733936791
0.103043602601
0.0836318396424
0.0258839092289
0.00747418885067
0.00206642784264
0.000588634110443
0.000172222203508
4.70026247617e-05
1.09640557541e-05
2.07970997979e-06
3.00912346386e-07
2.83829761747e-08
1.88561037998e-09
0.0466592741961
0.0487188883512
0.0516251508896
0.0554089308798
0.060095968641
0.0654705531798
0.0702200371713
0.0955964616765
0.0964070782963
0.0328464571934
0.00972142311934
0.00269275143218
0.000761538270854
0.000224231056616
6.28717609563e-05
1.52556452414e-05
3.02484645443e-06
4.5742853239e-07
4.50941607804e-08
3.18880219142e-09
0.048219253008
0.0501270130802
0.0528348945069
0.0563750633666
0.0607525015846
0.0656940711233
0.0700499875365
0.0884934864109
0.105530933414
0.0403167329646
0.0124735402275
0.00348563836101
0.000978601493353
0.000288772728614
8.2891096234e-05
2.08841781418e-05
4.32461377911e-06
6.8314349488e-07
7.03723527798e-08
5.29934541962e-09
0.0497768986459
0.0515423783952
0.0540575796204
0.0573486366501
0.0613911507276
0.0658572515601
0.0697663159402
0.0828729930154
0.111248206475
0.0479989623373
0.0158356446226
0.00451142260238
0.00125788387776
0.000369857369785
0.000108118572524
2.82020812537e-05
6.08960869676e-06
1.00383994821e-06
1.08008489017e-07
8.66358156236e-09
0.0513251792691
0.0529547034659
0.055280908997
0.0583219864838
0.062028556291
0.0660480383122
0.0696047204297
0.0796404411316
0.114345371836
0.0574063957256
0.0200042821617
0.00584768720638
0.00162140196417
0.00047242346707
0.000139815377843
3.76306180985e-05
8.45738947818e-06
1.4531696112e-06
1.63227557533e-07
1.39477743288e-08
0.0528582664701
0.0543582098257
0.0565028668655
0.0593054275188
0.0627030912774
0.0663534398233
0.0697062598611
0.0783729886817
0.116076570022
0.0683274039758
0.0250742332497
0.00755287502346
0.00208885852019
0.000601093846426
0.000179170312625
4.96029604003e-05
1.15849898778e-05
2.0727508019e-06
2.42963538799e-07
2.21211005609e-08
0.0543750584336
0.0557544436757
0.0577311218012
0.0603172222453
0.0634455055957
0.066803407425
0.07004836022
0.0780713313454
0.11686133617
0.0774571529861
0.030808915102
0.0096743594863
0.0026830593813
0.000761100736474
0.000227390312522
6.45562178891e-05
1.56453618885e-05
2.91227251803e-06
3.56138272931e-07
3.45591517191e-08
0.0558803640382
0.0571513160092
0.058978260025
0.0613743333663
0.0642717555833
0.067396447177
0.0705652088275
0.0783103660995
0.116994595524
0.0846347550394
0.0368799846859
0.0122635960183
0.00343937357314
0.000960762953072
0.000286175226182
8.30053328327e-05
2.08379818158e-05
4.03149328358e-06
5.14164872478e-07
5.31887118984e-08
0.0573834914457
0.0585595367435
0.0602556275171
0.0624851024109
0.0651797148252
0.0681060874461
0.0712213832883
0.0788964156446
0.116809559176
0.0902359432075
0.0429461042032
0.0153547210987
0.0044072326779
0.00121305756706
0.000358093849463
0.000105615204212
2.74028940099e-05
5.50336766088e-06
7.31688906938e-07
8.06869347584e-08
0.0588954907509
0.0599889869197
0.0615697375598
0.0636488257539
0.0661577418894
0.068906251883
0.0719830368795
0.0797553713568
0.116610720214
0.0944055366054
0.0488505916257
0.018941457214
0.00564354881529
0.0015357059043
0.00044665250536
0.000133206245852
3.56224030393e-05
7.41549466416e-06
1.02723519485e-06
1.20713586455e-07
0.0604260121128
0.0614459923392
0.0629213184886
0.0648589310966
0.0671931721093
0.0697813524592
0.0728478435981
0.0808921866905
0.116596986291
0.0976050534777
0.0544115421719
0.0229387937461
0.00720007913843
0.00195069934569
0.000556274090097
0.000166727044125
4.58116051789e-05
9.86897257496e-06
1.42348734764e-06
1.78136860738e-07
0.0619802469973
0.0629315556826
0.0643060257155
0.0661069222027
0.0682775158652
0.0707278045358
0.0738345971973
0.0823552448214
0.116846460598
0.100017489606
0.0594573761714
0.0271806157429
0.00911579109098
0.00248601579177
0.000692789461865
0.000207313214374
5.8318217245e-05
1.29773966383e-05
1.94738755337e-06
2.59242504905e-07
0.0635569110676
0.0644412621911
0.0657170675695
0.0673872419153
0.0694114589675
0.0717582565415
0.0749882608016
0.0842944713804
0.117339095351
0.101738365432
0.0636056179086
0.0314714997163
0.0114088853278
0.0031784143442
0.000864531650303
0.000256470093869
7.35420856055e-05
1.6868269396e-05
2.63036469092e-06
3.71945210729e-07
0.0651499582941
0.0659694746044
0.0671523326586
0.0687069088291
0.0706176692637
0.0729223924356
0.0764187259346
0.0871243727008
0.118001914215
0.102748202758
0.0667672517357
0.0356111789695
0.0140562648429
0.00407205428256
0.00108345619367
0.000316287014255
9.1958363176e-05
2.16845573988e-05
3.50853696636e-06
5.26025398208e-07
0.066754295931
0.0675156928501
0.068619913227
0.0700871836298
0.0719345981953
0.0742852662261
0.0782480130831
0.0916053312669
0.118835648222
0.103145906228
0.0691888486805
0.0393393870225
0.0169680744773
0.0052136363964
0.00136698290206
0.000389790586299
0.000114154220979
2.75863181998e-05
4.62280390145e-06
7.33429405417e-07
0.0683685250263
0.0690832519888
0.0701290260338
0.071541627589
0.0733748328077
0.0758579009768
0.080468183051
0.0970849399643
0.119596719386
0.10301589056
0.0709816331428
0.0424952536251
0.0200282636415
0.00664742018173
0.00174119472419
0.000481568265711
0.000140895197892
3.47540747912e-05
6.01930934719e-06
1.00883437106e-06
0.0699926485355
0.0706734917766
0.0716806776936
0.0730668482034
0.0749272869264
0.0776334817381
0.0830178923624
0.103004024839
0.12005306198
0.102378063791
0.0721608541439
0.0449911224233
0.0231291829663
0.00839549694912
0.00224101627593
0.000598120607731
0.000173135147696
4.33801590032e-05
7.74907988118e-06
1.37056710217e-06
0.071627968533
0.0722874619648
0.0732750428036
0.0746631936065
0.0766029625261
0.0796605785506
0.0859489124025
0.108977833324
0.119993130343
0.101239286507
0.0727767553926
0.0469877277267
0.0260416201434
0.0104196034106
0.00290602023093
0.000748190765849
0.000212015742082
5.36527523844e-05
9.86807734335e-06
1.84231371509e-06
0.0732948926009
0.0739512782145
0.0749496307878
0.0763922917647
0.0785158114694
0.0821319573108
0.0899569667694
0.114451055229
0.119217162235
0.0995946934529
0.0728695600249
0.0485420932408
0.0285784883984
0.0126541581893
0.00377746869841
0.000944066859147
0.000259007747452
6.57577547371e-05
1.24419356232e-05
2.4561828715e-06
0.0750857131408
0.0757795811713
0.0768584623705
0.0784760397671
0.0810026953304
0.0854965149755
0.098410352898
0.118811979363
0.117605200469
0.0974778036601
0.0724855830057
0.0496595788035
0.0306367663083
0.0150178034578
0.00488727782512
0.00120261481276
0.000316043302282
7.98792948784e-05
1.55552242504e-05
3.25735021096e-06
0.0771508408705
0.0779315814854
0.0791697779201
0.0810870014621
0.0842129147122
0.0898502038118
0.107991290168
0.121530156164
0.115116372727
0.0949385166649
0.0716843182664
0.0503781646065
0.0323276311722
0.0173231550366
0.00623279688995
0.00154588458025
0.000385761345709
9.62107199215e-05
1.93261938777e-05
4.31077552153e-06
0.0797544612182
0.0806878741488
0.0821934735738
0.084590165447
0.0885578982856
0.0988298836292
0.116322137405
0.122172656803
0.111766473319
0.0920296397382
0.0705269952632
0.0507440115337
0.0337083846561
0.0193753906962
0.00783290192524
0.00200849268604
0.000472472525811
0.000115022175098
2.39305678827e-05
5.70930738665e-06
0.0832418673925
0.0844024789898
0.0863074825353
0.0893977085695
0.0957073672039
0.110740219826
0.121816583978
0.120639742791
0.107675036119
0.0888345862738
0.0690966188058
0.0508252290483
0.0348281034093
0.021153997026
0.00963079662106
0.00263609498958
0.000583055345176
0.000136657325741
2.96150155628e-05
7.60516598719e-06
0.0880328721526
0.0895669769678
0.0921541930437
0.0977430573192
0.109226433225
0.119996684543
0.123643222771
0.117456352417
0.103510411457
0.0859707120258
0.0679464458064
0.0510552266409
0.0359797932304
0.0228541604387
0.0115402925338
0.00347317631137
0.000717684478318
0.000160158032932
3.65201238429e-05
1.02134321574e-05
1.4185515883e-23
2.73686219606e-23
1.81778477184e-23
3.11169497072e-23
5.04043721702e-23
6.04805007216e-23
1.88337243028e-22
1.64223024424e-22
6.7155141759e-22
4.31090177517e-22
2.21663643305e-21
1.13062829855e-21
6.87807592514e-21
2.95061160634e-21
2.03241269915e-20
7.64275967353e-21
5.77726489741e-20
1.96487198101e-20
1.59368847857e-19
5.02206144422e-20
4.29566046654e-19
1.27836842611e-19
1.13663910375e-18
3.24400781482e-19
2.96117981806e-18
8.20840881149e-19
7.61002806912e-18
2.07066860407e-18
1.93179298362e-17
5.20598991869e-18
4.84870324733e-17
1.30410791967e-17
1.20432309669e-16
3.25424213527e-17
2.96200278812e-16
8.08770218616e-17
7.21544907145e-16
2.00122944301e-16
1.74026394489e-15
4.92859958801e-16
4.15280011395e-15
1.20610468616e-15
9.79576272503e-15
2.92639011983e-15
2.28138651e-14
7.02789151478e-15
5.23954152e-14
1.66792595193e-14
1.18529133084e-13
3.90644497635e-14
2.63812767647e-13
9.02166144638e-14
5.77290291423e-13
2.05056820091e-13
1.24094714054e-12
4.58047977985e-13
2.6179301325e-12
1.00422695942e-12
5.41560119021e-12
2.1585525267e-12
1.09798200081e-11
4.54544136394e-12
2.18109381875e-11
9.37290124883e-12
4.24439637722e-11
1.892145677e-11
8.09309529477e-11
3.73992175734e-11
1.51318147058e-10
7.24165012922e-11
2.77665969598e-10
1.37470879076e-10
5.00280410686e-10
2.55990353946e-10
8.85162009395e-10
4.67734368897e-10
1.53855585521e-09
8.38874234197e-10
2.62936714679e-09
1.47779520885e-09
4.42200482568e-09
2.55910986912e-09
7.32151240528e-09
4.35842499678e-09
1.19344943475e-08
7.30109639544e-09
1.91536247898e-08
1.20302950546e-08
3.0273646305e-08
1.95007542059e-08
4.71380452604e-08
3.11012249279e-08
7.23059845658e-08
4.88024046535e-08
1.09233195577e-07
7.53272284204e-08
1.62472690375e-07
1.14348178754e-07
2.37920715311e-07
1.7073682758e-07
3.4314581638e-07
2.50902089947e-07
4.87920680686e-07
3.63312330614e-07
6.85053472792e-07
5.19284752022e-07
9.51868195931e-07
7.3439025089e-07
1.31239447607e-06
1.03035154376e-06
1.79951439314e-06
1.43619669613e-06
2.4601145639e-06
1.9932478722e-06
3.35582690867e-06
2.75220967406e-06
4.58407222144e-06
3.78265809882e-06
6.59267789895e-06
5.69221074033e-06
)
;

boundaryField
{
    inletfuel
    {
        type            calculated;
        value           uniform 0;
    }
    inletair
    {
        type            calculated;
        value           uniform 0;
    }
    outlet
    {
        type            calculated;
        value           uniform 0;
    }
    axis
    {
        type            empty;
    }
    leftside
    {
        type            calculated;
        value           uniform 0;
    }
    burnerwall
    {
        type            calculated;
        value           uniform 0;
    }
    front
    {
        type            wedge;
    }
    back
    {
        type            wedge;
    }
}


// ************************************************************************* //
