/*--------------------------------*- C++ -*----------------------------------*\
  =========                 |
  \\      /  F ield         | OpenFOAM: The Open Source CFD Toolbox
   \\    /   O peration     | Website:  https://openfoam.org
    \\  /    A nd           | Version:  dev
     \\/     M anipulation  |
\*---------------------------------------------------------------------------*/
FoamFile
{
    version     2.0;
    format      ascii;
    class       volScalarField;
    location    "0.3";
    object      edc::YStar_CH2O;
}
// * * * * * * * * * * * * * * * * * * * * * * * * * * * * * * * * * * * * * //

dimensions      [0 0 0 0 0 0 0];

internalField   nonuniform List<scalar> 
1629
(
7.12480085678e-19
6.73863858987e-19
5.4135274902e-19
9.8715022573e-17
1.33805101501e-16
2.27837794799e-16
7.4331242812e-15
1.54130706824e-14
5.5032192412e-14
4.19706329548e-13
1.29830258239e-12
8.80680561596e-12
1.71746266748e-11
5.66277209544e-11
3.17590964489e-10
6.74506378337e-10
2.42652626482e-09
1.23312619123e-08
2.04945759147e-08
7.4927215917e-08
3.43139980817e-07
3.8462402832e-07
1.35259123176e-06
5.8308205858e-06
2.04638999151e-06
5.69608026658e-06
1.88701054523e-05
6.53165674273e-06
1.4503974547e-05
3.80911578077e-05
1.53820910842e-05
2.81974680206e-05
6.10498723033e-05
2.98156243307e-05
4.71683445093e-05
8.81660828921e-05
5.0864981147e-05
7.23566721682e-05
0.000121453248508
7.91036659856e-05
0.000104095002629
0.000160118761749
0.000114296061011
0.000141760233591
0.000202314755473
0.000155244997302
0.000183823344556
0.000245773198099
0.00020006574334
0.000228326791128
0.000288585460696
0.000246601884934
0.000273283808079
0.000329302238484
0.000292768766387
0.000316925646751
0.000366938971285
0.000336796070736
0.00035786269889
0.000400968292365
0.000377420315809
0.000395213115003
0.000431297286348
0.000413952716907
0.000428584835791
0.000458077696005
0.000446115394741
0.000457854031224
0.000481395944289
0.000473763671961
0.000482911970661
0.000501148623146
0.000496764505914
0.000503617139878
0.000517156178011
0.000515078215238
0.000519931292743
0.000529386095642
0.000528844157263
0.000532007766394
0.000538018622147
0.00053834124782
0.000540116602675
0.000543304638503
0.000543871370645
0.00054452936996
0.000545447685025
0.000545713710367
0.000545488285116
0.000544608926599
0.000544122276261
0.000543213582088
0.000540944007227
0.00053933920397
0.000537916686011
0.000534604712619
0.000531606685979
0.000529811239942
0.000525745079153
0.000521169950837
0.00051911570144
0.000514527590066
0.000508270962066
0.000506048077456
0.000501115099009
0.000493113977629
0.00049078374575
0.000485631737434
0.000475837199485
0.000473440912483
0.000468152345503
0.000456503142264
0.000454064227399
0.000448686127203
0.000435077462036
0.000432608658903
0.000427166358548
0.000411424880724
0.000408935074793
0.00040344922445
0.000385361440586
0.000382864945154
0.000377371025526
0.00035677672148
0.000354298594231
0.00034885255702
0.000325714742206
0.00032328635839
0.000317957453938
0.000292369155111
0.000290024817604
0.000284887829277
0.000257081071547
0.000254858771364
0.000249996891698
0.000220430287067
0.000218375738964
0.000213889481287
0.000183431288646
0.00018159951213
0.00017760918503
0.000147675138594
0.000146121536234
0.000142746354941
0.000115086677306
0.000113844735195
0.000111153473552
8.71573519526e-05
8.62175529952e-05
8.41843748103e-05
6.42489367687e-05
6.35637290693e-05
6.20818913167e-05
4.5809525426e-05
4.53223087151e-05
4.42684400544e-05
3.121466141e-05
3.08814468046e-05
3.01609599227e-05
2.01787527581e-05
1.99678198543e-05
1.95125377332e-05
1.25139673218e-05
1.23974438467e-05
1.21468989856e-05
7.79890595562e-06
7.74919736614e-06
7.64362913397e-06
5.34072522741e-06
5.33322849199e-06
5.31890839783e-06
4.36131816976e-06
4.37699000557e-06
4.41270651277e-06
4.19125842093e-06
4.21754952566e-06
4.27595379687e-06
4.35054925985e-06
4.37967038552e-06
4.44381260004e-06
4.53705993611e-06
4.56386125836e-06
4.62237185262e-06
4.58010071498e-06
4.60032292354e-06
4.64365958268e-06
4.34042430448e-06
4.34713828461e-06
4.35975774241e-06
4.77219023297e-11
1.2726859993e-09
4.22820210389e-08
1.12703355488e-06
2.06485934441e-05
5.31422865249e-05
8.81063273832e-05
0.000120097395754
0.000155479119925
0.000199405271962
0.000246005567904
0.000291662984765
0.000333697392079
0.000371111476066
0.000403600563947
0.000431424431183
0.000455254706675
0.000475957432796
0.000494143613877
0.000509875369824
0.000522903289703
0.000532970723095
0.000540067860309
0.000544405597946
0.0005461914312
0.000545525928601
0.000542469418852
0.000537099694908
0.000529489614684
0.000519712232999
0.000507860071
0.000494026159759
0.000478272943936
0.000460621469917
0.000441040454831
0.000419437357675
0.000395670600177
0.000369598871676
0.000341169358692
0.000310460232636
0.000277680183935
0.000243195303903
0.000207635484859
0.000172070426611
0.000138083890059
0.000107451883134
8.13951545586e-05
6.00499489089e-05
4.28229238708e-05
2.9173719974e-05
1.88910914512e-05
1.18076981432e-05
7.50388932943e-06
5.30425007704e-06
4.46620599211e-06
4.35995763245e-06
4.53476193112e-06
4.7041383573e-06
4.70249641439e-06
4.3725426413e-06
7.9928661439e-16
3.88812338919e-15
9.25879482183e-15
1.26201033379e-14
9.6804899992e-15
4.82843441104e-15
1.72560497194e-15
4.68378956642e-16
1.01100554767e-16
1.78023992863e-17
2.5889688073e-18
3.13593156021e-19
3.18539670813e-20
2.73137830729e-21
1.99206996954e-22
1.24791576504e-23
6.81122217214e-25
3.29649991559e-26
1.43804335171e-27
3.29644297033e-29
1.68449779733e-14
6.83022274929e-14
1.88654262359e-13
2.7587644585e-13
1.93435928849e-13
8.43313248708e-14
2.60886146499e-14
6.15818515557e-15
1.17217436245e-15
1.84008094188e-16
2.40953246323e-17
2.6548970551e-18
2.4798357127e-19
1.97831784727e-20
1.35980594844e-21
8.14729391417e-23
4.33036215826e-24
2.08658544753e-25
9.05461738304e-27
2.06370599063e-28
5.36716715167e-13
7.55307430646e-13
2.32487202892e-12
3.55785459326e-12
2.25218309405e-12
8.64885565135e-13
2.36018659691e-13
4.98250819817e-14
8.60257149099e-15
1.23472973759e-15
1.49024369651e-16
1.52610517692e-17
1.33641204957e-18
1.00870949202e-19
6.62561382825e-21
3.83769148202e-22
1.99977659709e-23
9.65485972381e-25
4.21639502552e-26
9.08128014802e-28
2.72438833807e-11
1.05296644258e-11
2.69227090744e-11
3.69485807297e-11
2.07759943492e-11
7.20238266961e-12
1.79285499152e-12
3.52256125581e-13
5.70112290104e-14
7.72386024729e-15
8.86066880151e-16
8.68273710597e-17
7.3226868617e-18
5.35665090337e-19
3.43226349456e-20
1.95367195388e-21
1.00968129705e-22
4.90234512436e-24
2.19793651645e-25
5.72514860957e-27
1.85664053332e-09
4.44679942885e-10
4.62980480348e-10
4.26555406226e-10
1.95882088761e-10
5.98647293855e-11
1.3524003452e-11
2.45502115131e-12
3.71252036847e-13
4.74683677154e-14
5.19388743147e-15
4.90060399678e-16
4.0124434755e-17
2.87017070357e-18
1.81011946899e-19
1.02069729623e-20
5.26333847651e-22
2.57605271535e-23
1.18696303579e-24
3.87021074081e-26
1.03410762183e-07
4.82183884056e-08
1.3506262369e-08
5.60850273203e-09
1.8409460381e-09
4.79401024265e-10
9.75301563518e-11
1.62068638941e-11
2.27137738884e-12
2.74387024694e-13
2.87435907611e-14
2.62632811711e-15
2.1015814285e-16
1.48011395855e-17
9.24677528036e-19
5.19278844651e-20
2.68046282917e-21
1.32115634171e-22
6.1675330828e-24
2.26544139239e-25
3.96462958426e-06
5.33558503619e-06
7.41871510966e-07
1.07519756564e-07
1.85398853307e-08
3.57729847594e-09
6.29056315294e-10
9.49926407034e-11
1.24582086211e-11
1.43303370656e-12
1.45406579603e-13
1.3013621832e-14
1.02836795019e-15
7.19531224381e-17
4.48561382977e-18
2.52206779583e-19
1.306385945e-20
6.4662548077e-22
3.00808142576e-23
1.15731625993e-24
0.000104287467123
1.90393934395e-11
1.71481540171e-05
1.70596371833e-06
1.76014366704e-07
2.1807888944e-08
3.17563098166e-09
4.46083413931e-10
5.66133150845e-11
6.42762225987e-12
6.48838117589e-13
5.81323191738e-14
4.61384369954e-15
3.24879135835e-16
2.04042687851e-17
1.1560348381e-18
6.02576732875e-20
2.98809332254e-21
1.36900321225e-22
5.24206477344e-24
0.000203167773634
0.00133996598841
5.55068070189e-05
4.04206369771e-06
4.34648856898e-07
5.875571746e-08
9.3319677892e-09
1.44120253266e-09
1.97372887524e-10
2.3679369217e-11
2.49065494463e-12
2.30442179142e-13
1.87692491653e-14
1.35052115709e-15
8.63806091447e-17
4.96674461217e-18
2.61414130432e-19
1.29746712655e-20
5.81644297922e-22
2.14548793767e-23
0.000262523182226
0.000974798080419
9.82788985753e-05
5.56621637039e-06
7.17377117751e-07
1.16551613179e-07
2.1329397722e-08
3.74842220474e-09
5.72499520859e-10
7.47631760189e-11
8.40062326077e-12
8.18341486145e-13
6.94617164408e-14
5.16875274269e-15
3.39722686639e-16
1.994857739e-17
1.06388547786e-18
5.28679081541e-20
2.3133156616e-21
8.0809461574e-23
0.000290314200813
0.000727334861272
0.000144781778903
1.39771691854e-05
1.98882617654e-06
3.00872991218e-07
5.2675028278e-08
9.52404231201e-09
1.54881454504e-09
2.16303405028e-10
2.58581134416e-11
2.65795346499e-12
2.36417108146e-13
1.83065423237e-14
1.24356245046e-15
7.49190602055e-17
4.06107635961e-18
2.02305537543e-19
8.64302703815e-21
2.83971916321e-22
0.000337294159373
0.00093620433643
8.35091888426e-12
2.03945839117e-05
3.83993368209e-06
6.75272415811e-07
1.20624293507e-07
2.24963260742e-08
3.87477943761e-09
5.76402092349e-10
7.32023306781e-11
7.95510434335e-12
7.44098000666e-13
6.02077210653e-14
4.24495363868e-15
2.63367070916e-16
1.45536664524e-17
7.28297921689e-19
3.0447393548e-20
9.40297701037e-22
0.000408866654782
0.00118398848912
3.62557248764e-10
4.14142823978e-05
6.38804340918e-06
1.20905212017e-06
2.30469702599e-07
4.58645160401e-08
8.57867360354e-09
1.38375929547e-09
1.88899736297e-10
2.18913408423e-11
2.16545955417e-12
1.8403324684e-13
1.35270658269e-14
8.67576322576e-16
4.90355548754e-17
2.47221648218e-18
1.0150929526e-19
2.95716198772e-21
0.000466465822941
0.00111869599014
2.32074053978e-05
9.04051104232e-05
1.14925778466e-05
2.07517453631e-06
4.07849016537e-07
8.54528196953e-08
1.72602317208e-08
3.03022902723e-09
4.47395607803e-10
5.5579773597e-11
5.8458136138e-12
5.24176293928e-13
4.03294183816e-14
2.68358856288e-15
1.55670872509e-16
7.93512844326e-18
3.21511135442e-19
8.89315639383e-21
0.000509506251941
0.0010378725578
9.6970085277e-05
0.000221590713145
2.98067923028e-05
4.92643291629e-06
8.58571793523e-07
1.68011006576e-07
3.42068738476e-08
6.32636352833e-09
9.96657408345e-10
1.32122560346e-10
1.47682379463e-11
1.39935554235e-12
1.12961926653e-13
7.82025002933e-15
4.67067266143e-16
2.4161893758e-17
9.71187089168e-19
2.57227069161e-20
0.000537141428114
0.000932784238379
0.000531667752612
3.65782635449e-12
3.69613810793e-05
8.11581520566e-06
1.5789697025e-06
3.12093056376e-07
6.45998404436e-08
1.25218072715e-08
2.0952089103e-09
2.95666225529e-10
3.510828944e-11
3.51752657281e-12
2.98418927538e-13
2.1543426595e-14
1.32874361435e-15
7.00291264934e-17
2.80817200231e-18
7.18991036248e-20
0.000553460522486
0.000850958181201
0.000616537527425
8.44148275018e-11
4.3180649895e-05
1.02425807107e-05
2.30061174525e-06
4.95784977364e-07
1.09371255583e-07
2.27426010619e-08
4.09436292612e-09
6.19522290318e-10
7.84762431024e-11
8.33799522427e-12
7.453523004e-13
5.62621894977e-14
3.59493294978e-15
1.93806255854e-16
7.79822701287e-18
1.94958408148e-19
0.000561144926718
0.000778239007425
0.000609439977145
7.44871171343e-06
5.96580341431e-05
1.28609438115e-05
3.04039125245e-06
7.10251215028e-07
1.68982403491e-07
3.80881873075e-08
7.44368259778e-09
1.21634238454e-09
1.65194756084e-10
1.86837413588e-11
1.76514588175e-12
1.39716406809e-13
9.278508097e-15
5.1375247394e-16
2.08615369947e-17
5.14439279854e-19
0.000563312363429
0.000719195590479
0.000590115811411
1.90616255045e-05
0.000113745381397
1.89812127676e-05
4.29690255318e-06
1.03032223672e-06
2.56024368009e-07
6.13808980229e-08
1.29156684902e-08
2.2730073197e-09
3.30873344751e-10
3.98633172952e-11
3.98555460366e-12
3.31426212279e-13
2.29358071786e-14
1.30904532847e-15
5.39276997323e-17
1.32458870524e-18
0.000563087248292
0.000675713171295
0.000571138339389
3.65202795324e-05
0.000239856413157
4.01234663387e-05
8.28868928049e-06
1.79505209302e-06
4.20604102449e-07
1.01033003855e-07
2.21788908887e-08
4.13743578673e-09
6.40273345083e-10
8.18503701863e-11
8.64635223363e-12
7.55447596962e-13
5.45579935456e-14
3.21857551188e-15
1.35138100214e-16
3.33623308404e-18
0.000562896393657
0.000646290524216
0.000564014701979
0.000137462061075
3.40807449374e-12
5.04279066517e-05
1.28633321698e-05
2.99683548801e-06
6.94980426333e-07
1.6659643021e-07
3.76838708017e-08
7.37746980507e-09
1.20557623844e-09
1.62830540056e-10
1.81304717209e-11
1.66314998576e-12
1.25431935735e-13
7.66428705236e-15
3.29257984835e-16
8.23728345847e-18
0.000563408259204
0.000625278989678
0.000560849658138
0.000235359703002
1.94876758793e-10
6.27701987427e-05
1.65617126635e-05
4.24708637031e-06
1.04159426936e-06
2.59056208211e-07
6.13839848694e-08
1.26980975416e-08
2.19655578738e-09
3.13571528991e-10
3.68023968609e-11
3.54526377177e-12
2.79485459007e-13
1.77223423327e-14
7.81750297355e-16
1.99672593827e-17
0.000563750073227
0.00060625413428
0.000545046829688
0.000270556575092
6.22235914676e-06
8.38805481907e-05
2.09781920573e-05
5.6472249724e-06
1.46516835994e-06
3.81844760322e-07
9.54254520123e-08
2.09741049018e-08
3.8560571774e-09
5.83339337052e-10
7.22824348191e-11
7.32227208253e-12
6.04316045945e-13
3.98522228522e-14
1.81116882162e-15
4.75527540393e-17
0.000563110486633
0.000587937188246
0.000524185376046
0.000288066206032
1.40871582391e-05
0.000135487617018
3.13771044792e-05
8.32079371627e-06
2.15307305903e-06
5.64470356435e-07
1.45509846237e-07
3.36563308747e-08
6.55606519769e-09
1.0505259047e-09
1.37512059889e-10
1.46646548043e-11
1.26905171584e-12
8.72216585154e-14
4.09730722942e-15
1.11269452956e-16
0.000561126748274
0.000570604090356
0.000503605243877
0.000294940906145
2.31046095192e-05
1.26008656167e-12
3.64378895329e-05
1.13098299908e-05
3.10750960143e-06
8.25309030374e-07
2.17594423049e-07
5.25940421902e-08
1.08193686226e-08
1.83417604133e-09
2.5365315858e-10
2.84997508431e-11
2.58973639834e-12
1.85879721121e-13
9.05282212054e-15
2.55701575803e-16
0.000557913437538
0.000555017386326
0.000486724702506
0.000301098448216
4.90846023153e-05
1.5562701362e-11
4.2951463074e-05
1.36849288692e-05
4.07318572512e-06
1.1313855674e-06
3.10007267687e-07
7.88318732457e-08
1.71956737426e-08
3.09315538818e-09
4.52906951691e-10
5.37138950463e-11
5.13478292969e-12
3.85707577866e-13
1.9531803191e-14
5.76662246141e-16
0.000553744663324
0.000541394628954
0.000473430335428
0.000306299081206
7.76412383546e-05
2.62654602634e-10
5.60073580183e-05
1.62843511866e-05
5.03022496905e-06
1.46334632923e-06
4.19894605875e-07
1.12904691326e-07
2.62251455635e-08
5.02546655108e-09
7.8157367478e-10
9.80991152163e-11
9.88805543704e-12
7.79098387242e-13
4.11351264039e-14
1.27511583277e-15
0.00054868067019
0.000529111721758
0.000461719691977
0.000309111737282
0.000102979514294
1.12497095911e-08
8.32592936079e-05
2.0707186008e-05
6.2946057319e-06
1.87698530672e-06
5.56957482907e-07
1.57138193992e-07
3.87421784958e-08
7.90566996951e-09
1.30709349723e-09
1.73863179681e-10
1.85077448878e-11
1.5323877253e-12
8.45568544959e-14
2.76242849351e-15
0.000542575772017
0.000517382801113
0.000450247918735
0.000309638939133
0.0001252124871
7.74819265622e-06
0.000145342165983
3.18087255e-05
8.87829291222e-06
2.55554487946e-06
7.52911448768e-07
2.17649684132e-07
5.62608504852e-08
1.21524377212e-08
2.1305502864e-09
3.00080901796e-10
3.37408526446e-11
2.93818116528e-12
1.69717033401e-13
5.86096583937e-15
0.000535274825317
0.000505730116188
0.000438695994141
0.000307690801071
0.000137794093933
1.367298734e-05
7.49752533839e-13
3.3383682827e-05
1.13058224129e-05
3.4342726802e-06
1.01743055456e-06
2.9909342073e-07
8.04345565049e-08
1.83039106873e-08
3.39385169524e-09
5.0551046935e-10
6.00122408051e-11
5.49784293932e-12
3.32782719869e-13
1.21751320411e-14
0.000526675967891
0.000493871894691
0.000427006809487
0.00030386343227
0.000143632363568
2.13356894261e-05
1.24347434343e-11
3.75836758194e-05
1.31580242496e-05
4.30857934768e-06
1.3204227847e-06
3.99175730569e-07
1.119831495e-07
2.68682541444e-08
5.27051701907e-09
8.30439867738e-10
1.04123314328e-10
1.00404575082e-11
6.37455957077e-13
2.47515035451e-14
0.000516676116634
0.000481474268713
0.000414774538329
0.000297878462031
0.00014539522253
2.84827408791e-05
1.09194191691e-10
4.82498228499e-05
1.53353143103e-05
5.22649446895e-06
1.65904391613e-06
5.17375263863e-07
1.51516338295e-07
3.83533184136e-08
7.96595030898e-09
1.32883731928e-09
1.76105458236e-10
1.78880263206e-11
1.19234235847e-12
4.92096093014e-14
0.000505184571438
0.000468233111835
0.000401621704252
0.000289625921717
0.00014421911136
3.2393096486e-05
4.27373693201e-10
7.21346549903e-05
1.95375647812e-05
6.53764947659e-06
2.09601687779e-06
6.64367636916e-07
2.01297963469e-07
5.35171871002e-08
1.17488174941e-08
2.07373447843e-09
2.9048238013e-10
3.10916532956e-11
2.17725822093e-12
9.56263051099e-14
0.000492149346088
0.000453935287955
0.000387367209288
0.000279416015546
0.000141042735186
3.54986112856e-05
1.00123976248e-09
3.8157601852e-08
1.94630000966e-05
7.71159663597e-06
2.60708525574e-06
8.43199555558e-07
2.63062366081e-07
7.31622803162e-08
1.69402337725e-08
3.16037489042e-09
4.6769283135e-10
5.27463390477e-11
3.88169254773e-12
1.81587390544e-13
0.000477526010382
0.000438402528546
0.000371967034071
0.000267879594315
0.000137031535852
3.97853275153e-05
4.12978785857e-06
3.4494392246e-13
1.89379801278e-05
8.50660445859e-06
3.10490441438e-06
1.03920120718e-06
3.35045383956e-07
9.7524896377e-08
2.38202562207e-08
4.69833602983e-09
7.34731328448e-10
8.73318992461e-11
6.75646981487e-12
3.36917915913e-13
0.000461258904892
0.000421489359454
0.000355423633575
0.00025529116327
0.000132541574604
4.32972235354e-05
1.11304868476e-05
3.15714906456e-12
2.1092578169e-05
9.13523117651e-06
3.56772244913e-06
1.24179251559e-06
4.14757954677e-07
1.26442913136e-07
3.2603133656e-08
6.80498221687e-09
1.1254389e-09
1.41072921846e-10
1.14800832645e-11
6.10755414823e-13
0.00044327118794
0.000403053112968
0.000337638940865
0.000241532560958
0.00012708581124
4.50391533727e-05
1.40161389455e-05
2.04106461581e-11
2.72775649479e-05
1.0029731267e-05
4.05408053443e-06
1.45900097413e-06
5.03049463279e-07
1.60181214972e-07
4.35522916697e-08
9.61763547824e-09
1.68252414801e-09
2.22474973933e-10
1.90501819933e-11
1.08213873613e-12
0.000423456232955
0.000382958974038
0.000318488111635
0.000226463534237
0.000120385610077
4.51600840971e-05
1.57345184063e-05
7.62650641807e-11
3.45178208446e-05
1.1509027776e-05
4.65468662744e-06
1.71064680685e-06
6.03682919914e-07
1.99568589635e-07
5.70352246267e-08
1.33057197729e-08
2.46051762477e-09
3.43076290403e-10
3.09111876379e-11
1.87582048405e-12
0.000401688827406
0.000361126886913
0.000297940247454
0.000210160827347
0.000112608747469
4.39541450267e-05
1.67129916429e-05
1.73719476821e-10
2.80680087507e-07
1.08200636126e-05
5.1197662342e-06
1.97923718299e-06
7.15841872424e-07
2.44746459202e-07
7.33176168169e-08
1.80434515288e-08
3.52435774888e-09
5.17954262738e-10
4.90982753183e-11
3.18428287138e-12
0.000377849886905
0.000337536057869
0.000276049085268
0.000192859840261
0.000104128129871
4.18326993492e-05
1.71773672745e-05
3.47155618597e-10
1.06496612085e-11
1.00656159615e-05
5.39191257375e-06
2.23404645271e-06
8.33225716324e-07
2.94436356459e-07
9.23326189153e-08
2.39575847952e-08
4.94218287089e-09
7.65530272561e-10
7.63550010129e-11
5.29543038468e-12
0.000351854887133
0.000312175694387
0.000252840619486
0.000174722519092
9.51111184857e-05
3.92010678482e-05
1.71542277387e-05
6.13270438156e-10
0
1.0213845918e-05
5.54589267184e-06
2.46572990367e-06
9.51376775806e-07
3.47187882214e-07
1.13823443352e-07
3.11244679137e-08
6.78132959296e-09
1.10729480298e-09
1.16241945118e-10
8.62726636906e-12
0.000323699465514
0.000285070571381
0.000228375946144
0.000155953692209
8.57020609203e-05
3.61331248432e-05
1.6771672565e-05
1.21352232287e-09
1.09879303649e-12
1.11213141855e-05
5.66773056446e-06
2.68218365319e-06
1.07060507566e-06
4.02519201515e-07
1.37630707307e-07
3.96153974565e-08
9.11292058265e-09
1.56844095282e-09
1.73326140766e-10
1.37762082066e-11
0.000293481811231
0.000256334913834
0.000202851372423
0.000136911885924
7.60954453587e-05
3.27554934458e-05
1.62221146773e-05
3.50690171264e-07
3.56935356171e-12
1.00874599549e-05
5.68613660741e-06
2.88430551584e-06
1.1927479977e-06
4.60593968637e-07
1.63697974509e-07
4.95085199815e-08
1.20142744936e-08
2.17866148252e-09
2.53440634213e-10
2.15837729684e-11
0.000261422639666
0.000226238992762
0.000176682544661
0.000118124015852
6.65251837932e-05
2.92259566355e-05
1.56286453635e-05
3.32385293997e-06
1.5738970618e-11
1.76527157384e-06
5.20293968952e-06
3.02505905417e-06
1.31393726558e-06
5.20847745517e-07
1.91790537396e-07
6.08278916208e-08
1.55577073258e-08
2.9710466491e-09
3.63808674717e-10
3.32123951947e-11
0.000227921155826
0.000195287808643
0.000150546151602
0.000100187017026
5.72013951051e-05
2.56770923576e-05
1.49720272404e-05
5.77374401524e-06
2.10950597649e-11
5.06185479361e-08
4.58383362634e-06
3.07972628469e-06
1.42660041741e-06
5.81536899745e-07
2.21301023936e-07
7.34726310086e-08
1.97906717803e-08
3.97869325862e-09
5.12872378363e-10
5.02141417707e-11
0.000193666838391
0.000164301218014
0.000125339288973
8.3595281216e-05
4.82837795891e-05
2.22562087757e-05
1.42684932609e-05
7.05052063217e-06
3.27370544697e-11
4.42223387239e-10
4.13727319336e-06
3.05604249982e-06
1.52551090602e-06
6.40956157992e-07
2.51486140636e-07
8.72388155006e-08
2.47288881131e-08
5.23191034576e-09
7.10029712993e-10
7.45963020371e-11
0.000159782924376
0.00013445256188
0.00010203581894
6.86243463082e-05
3.99243352837e-05
1.91283225152e-05
1.3477589617e-05
7.69449853312e-06
4.49591098229e-11
0
3.90189244646e-06
2.94888590373e-06
1.60728757685e-06
6.98237102944e-07
2.8179230769e-07
1.01902018266e-07
3.03670124128e-08
6.75826267319e-09
9.65627323966e-10
1.08909530219e-10
0.000127821154815
0.000107094862217
8.13948973081e-05
5.53098018809e-05
3.22771175549e-05
1.63805063142e-05
1.27864939968e-05
7.9088634587e-06
5.91493763703e-11
2.84181143513e-13
3.58893491587e-06
2.76882010989e-06
1.66814216587e-06
7.53008301645e-07
3.11885739089e-07
1.17249781268e-07
3.66856085698e-08
8.58297772313e-09
1.29106341734e-09
1.5635414717e-10
9.93642684909e-05
8.32883590701e-05
6.3678301378e-05
4.35617137705e-05
2.55153348975e-05
1.40860173052e-05
1.21709379091e-05
7.76305369373e-06
6.95013173882e-11
1.65967836335e-13
2.53136599702e-06
2.50454100319e-06
1.69930828149e-06
8.04408546632e-07
3.41465742464e-07
1.33048020631e-07
4.36418810653e-08
1.07262027873e-08
1.69842585092e-09
2.20839918988e-10
7.53287684812e-05
6.3339143743e-05
4.86746525374e-05
3.33347227474e-05
1.98097466912e-05
1.22835103356e-05
1.16099224982e-05
7.2669604492e-06
7.52470815556e-11
3.82204656528e-13
8.94937841481e-07
2.16409476281e-06
1.68688004479e-06
8.50397436521e-07
3.7011465533e-07
1.49009014007e-07
5.11559630881e-08
1.31978758423e-08
2.19946491153e-09
3.06930613873e-10
5.56329318276e-05
4.68756033788e-05
3.60568253923e-05
2.47102237442e-05
1.52760990168e-05
1.09649813505e-05
1.10723875505e-05
6.3597113273e-06
7.78675616272e-11
3.00128659918e-13
1.9842789022e-07
1.84223228596e-06
1.62161925613e-06
8.88254115714e-07
3.97364963575e-07
1.64821033249e-07
5.91112289532e-08
1.59942646526e-08
2.8043864389e-09
4.19674999464e-10
3.96758464899e-05
3.34197865065e-05
2.56979872005e-05
1.78332473218e-05
1.19372498491e-05
1.00784612544e-05
1.05176813583e-05
4.79771209916e-06
7.02989531117e-11
8.21078796409e-13
4.67373691823e-08
1.6063457515e-06
1.5071799799e-06
9.15103507149e-07
4.22827869131e-07
1.80204763779e-07
6.73662986141e-08
1.90973352232e-08
3.52085616178e-09
5.6436502731e-10
2.70245084205e-05
2.27809168037e-05
1.76606237086e-05
1.27755591046e-05
9.71811838345e-06
9.55211382192e-06
9.89757252629e-06
1.91449380917e-06
6.13451137857e-11
4.08642590593e-13
1.20921240632e-08
1.43925891295e-06
1.36027419259e-06
9.28211040262e-07
4.46182180498e-07
1.94936657875e-07
7.57624027597e-08
2.24737961524e-08
4.35296993761e-09
7.46260103981e-10
1.7544036613e-05
1.49394251032e-05
1.19523396132e-05
9.43648562423e-06
8.44730161188e-06
9.26376120647e-06
9.18354302135e-06
6.51031274741e-08
4.87685675831e-11
3.59655577439e-13
3.56718422445e-09
1.28910706732e-06
1.20499598008e-06
9.252146805e-07
4.67192253712e-07
2.0887020515e-07
8.4130200617e-08
2.60735701619e-08
5.30009841398e-09
9.70309819867e-10
1.10812254644e-05
9.73835280215e-06
8.36007267067e-06
7.54084284616e-06
7.88215093923e-06
9.05667560239e-06
8.47874174104e-06
6.97388323946e-10
3.53219536802e-11
6.6396427951e-13
1.33887276196e-09
1.10868567829e-06
1.05948320369e-06
9.04041947365e-07
4.85603141039e-07
2.21943204077e-07
9.22963626682e-08
2.98284291316e-08
6.35606007033e-09
1.24105622385e-09
7.21434675214e-06
6.7473842876e-06
6.45058584412e-06
6.69939833607e-06
7.73013273989e-06
8.75370513138e-06
7.70437814699e-06
4.52285266066e-10
2.40411913393e-11
2.42400461383e-13
6.67384057496e-10
8.90810375333e-07
9.31227938226e-07
8.62897801792e-07
5.00666021119e-07
2.34074262756e-07
1.00065603863e-07
3.36450596461e-08
7.50778885372e-09
1.56265502591e-09
5.28695100214e-06
5.35539244818e-06
5.69043429758e-06
6.49281854749e-06
7.69677286853e-06
8.22581391558e-06
6.31014059999e-06
2.82106482323e-10
1.7292004651e-11
2.99343034531e-13
4.29896483902e-10
6.68303257021e-07
8.20002758981e-07
8.02927231838e-07
5.10923424193e-07
2.45110406672e-07
1.07217792533e-07
3.74013206114e-08
8.73501041645e-09
1.9391992558e-09
4.59539585322e-06
4.94209775166e-06
5.57398245045e-06
6.5444291947e-06
7.53191540425e-06
7.42614672097e-06
2.786899691e-06
1.67313641662e-10
1.01676049235e-11
1.69987402208e-13
3.37816834581e-10
4.7792453256e-07
7.19520129138e-07
7.28293824951e-07
5.1428870936e-07
2.54849396264e-07
1.13534610859e-07
4.09538836599e-08
1.00124237065e-08
2.37515011108e-09
4.55226179223e-06
5.00620347291e-06
5.70720825386e-06
6.57027499814e-06
7.07938009571e-06
6.38368510707e-06
8.20726459074e-10
8.6773494335e-11
5.62011276922e-12
2.02734969532e-13
3.41542914721e-10
3.41932516648e-07
6.27013573411e-07
6.46137023797e-07
5.08422225944e-07
2.62981739745e-07
1.18809576124e-07
4.41468619965e-08
1.13126631772e-08
2.87543597868e-09
4.73721952022e-06
5.18534970646e-06
5.79428102341e-06
6.35667744657e-06
6.35082479864e-06
4.17279126749e-06
3.36000860645e-10
4.44328665471e-11
4.71837776086e-12
5.66163536394e-14
4.33496611302e-10
2.54078842026e-07
5.44428061899e-07
5.65845610246e-07
4.91955759672e-07
2.69137209468e-07
1.22881222621e-07
4.68242222616e-08
1.26082387327e-08
3.44442051514e-09
4.87975200875e-06
5.23748425709e-06
5.62949824726e-06
5.78828127773e-06
5.08678199181e-06
2.05125056691e-09
1.36628544524e-10
1.90878110099e-11
2.28948108765e-12
5.29124682891e-14
6.36056848909e-10
1.98174025945e-07
4.71005239844e-07
4.92446473324e-07
4.65122356334e-07
2.72964281257e-07
1.25681285564e-07
4.88487566514e-08
1.38723246867e-08
4.08318683757e-09
4.82006824717e-06
5.01733773905e-06
5.10527311803e-06
4.63197611413e-06
5.13641802242e-07
2.79923778596e-10
6.11202176583e-11
7.49139939099e-12
1.79756083192e-12
3.95284804262e-14
9.76649463848e-10
1.60903715617e-07
4.05337551465e-07
4.27625090373e-07
4.29304433663e-07
2.74004605577e-07
1.27230144994e-07
5.00957723097e-08
1.50680278018e-08
4.78606312197e-09
4.37606609393e-06
4.24703436515e-06
3.49756308815e-06
2.0049908049e-07
3.36803743361e-10
1.05390203315e-10
2.20482465798e-11
3.23877511296e-12
2.16409786662e-13
8.98480297208e-14
1.27949814741e-09
1.27002522804e-07
3.46215524685e-07
3.69918862423e-07
3.87058582255e-07
2.71576240041e-07
1.27121537789e-07
5.03543004318e-08
1.61189024774e-08
5.52934043109e-09
3.45872509522e-26
6.68888859756e-26
4.42124337801e-26
7.60722955762e-26
1.2315249546e-25
1.48356759102e-25
4.65448239891e-25
4.0674770298e-25
1.68396484059e-24
1.08098196357e-24
5.65454554015e-24
2.87832749712e-24
1.78899887893e-23
7.64474847299e-24
5.39912041349e-23
2.01911623111e-23
1.56889987059e-22
5.29964410164e-23
4.42508042887e-22
1.38372951087e-22
1.21916451769e-21
3.59839833083e-22
3.29563208228e-21
9.32614789647e-22
8.76596137638e-21
2.40909030013e-21
2.29850863522e-20
6.20060850894e-21
5.94843056336e-20
1.5894938765e-20
1.5207194425e-19
4.05644457817e-20
3.84333733228e-19
1.03028340292e-19
9.60804098037e-19
2.60361040228e-19
2.37640254067e-18
6.5438986136e-19
5.81245706715e-18
1.63515408061e-18
1.40467840172e-17
4.05463274854e-18
3.35007299633e-17
9.95323218933e-18
7.87298439441e-17
2.41395202041e-17
1.82031292935e-16
5.77316052092e-17
4.13457752323e-16
1.35915976544e-16
9.21242677534e-16
3.14644549368e-16
2.0117443724e-15
7.14734518423e-16
4.301377751e-15
1.59054271705e-15
8.99610937293e-15
3.46283830459e-15
1.83898220424e-14
7.36785661627e-15
3.67276377849e-14
1.53100276552e-14
7.16510039975e-14
3.10585837096e-14
1.36539137345e-13
6.15047541337e-14
2.54241085067e-13
1.18919184441e-13
4.62950008157e-13
2.24636702298e-13
8.2509322903e-13
4.14892061129e-13
1.44001824908e-12
7.49663197655e-13
2.46161919309e-12
1.32562443853e-12
4.12337953457e-12
2.29498785397e-12
6.7738060596e-12
3.89266382287e-12
1.09226749838e-11
6.47360241072e-12
1.72954755503e-11
1.05605275426e-11
2.68958646364e-11
1.6902012996e-11
4.10812985986e-11
2.65425095637e-11
6.16510329591e-11
4.09037568857e-11
9.09264283022e-11
6.18672630501e-11
1.31791888677e-10
9.18369866162e-11
1.87681296685e-10
1.33766732091e-10
2.62515889492e-10
1.91150707457e-10
3.60623327039e-10
2.68001129221e-10
4.86655083531e-10
3.68821800432e-10
6.45581737915e-10
4.98623691075e-10
8.42718054868e-10
6.62925098222e-10
1.08386257936e-09
8.67812787522e-10
1.37520913415e-09
1.11966491318e-09
1.72237448568e-09
1.42373323974e-09
2.12926143137e-09
1.78310873268e-09
2.59485545788e-09
2.19514566054e-09
3.10984768294e-09
2.64618863856e-09
3.70579623879e-09
3.20415887858e-09
)
;

boundaryField
{
    inletfuel
    {
        type            calculated;
        value           uniform 0;
    }
    inletair
    {
        type            calculated;