/*--------------------------------*- C++ -*----------------------------------*\
  =========                 |
  \\      /  F ield         | OpenFOAM: The Open Source CFD Toolbox
   \\    /   O peration     | Website:  https://openfoam.org
    \\  /    A nd           | Version:  dev
     \\/     M anipulation  |
\*---------------------------------------------------------------------------*/
FoamFile
{
    version     2.0;
    format      ascii;
    class       volScalarField;
    location    "0.3";
    object      edc::R_C2H5;
}
// * * * * * * * * * * * * * * * * * * * * * * * * * * * * * * * * * * * * * //

dimensions      [1 -3 -1 0 0 0 0];

internalField   nonuniform List<scalar> 
1629
(
-5.83346599162e-28
-6.34779723499e-28
-7.20222322321e-28
-8.62161295925e-24
-1.86878828333e-23
-7.86593967671e-23
-4.99045327234e-20
-2.58680580617e-19
-4.4048928275e-18
-1.50266613297e-16
-1.87323754124e-15
-9.65508201084e-14
-3.49677075025e-14
-4.11158639189e-13
-1.02756365165e-11
-4.76457287121e-12
-5.09402910269e-11
-8.67692633706e-10
-4.26833008699e-10
-4.05260336834e-09
-5.07004562227e-08
-2.34450335328e-08
-2.02085798566e-07
-2.43322272577e-06
-1.91079197076e-07
-1.01957063758e-06
-6.86934608972e-06
-6.52070549393e-07
-2.13938117669e-06
-8.23847043688e-06
-1.33831589801e-06
-2.95956389177e-06
-7.44087800292e-06
-2.09301177211e-06
-3.58431335889e-06
-7.37363111826e-06
-3.04454626006e-06
-4.7246201775e-06
-9.75676861203e-06
-4.53506986999e-06
-6.95291768611e-06
-1.55577181414e-05
-7.27357534859e-06
-1.13905141705e-05
-2.70654518852e-05
-1.11396349635e-05
-1.6840848245e-05
-3.71127666664e-05
-1.49722048906e-05
-2.12522742419e-05
-4.17381489026e-05
-1.7299276025e-05
-2.31170939145e-05
-4.06493500125e-05
-1.74129554613e-05
-2.21986522493e-05
-3.62565417835e-05
-1.59487664692e-05
-1.99184449145e-05
-3.22177611752e-05
-1.42324437912e-05
-1.81788537441e-05
-3.10067475492e-05
-1.33074544317e-05
-1.788523745e-05
-3.28441821492e-05
-1.34740286559e-05
-1.89474119098e-05
-3.58687751778e-05
-1.45725600124e-05
-2.07810012067e-05
-3.81407136501e-05
-1.63137933836e-05
-2.28072127995e-05
-3.83702943217e-05
-1.8341229669e-05
-2.43668285409e-05
-3.60935786541e-05
-2.03005360391e-05
-2.47728510031e-05
-3.14272141946e-05
-2.10208535776e-05
-2.34289827328e-05
-2.56310210855e-05
-2.0233685894e-05
-2.09462649576e-05
-1.99750332761e-05
-1.83911973461e-05
-1.81248008319e-05
-1.6507177892e-05
-1.67910430662e-05
-1.64076115667e-05
-1.53807249423e-05
-1.59623239232e-05
-1.58217553226e-05
-1.55266444815e-05
-1.57838113504e-05
-1.58516241502e-05
-1.59669521981e-05
-1.57756285502e-05
-1.58785127937e-05
-1.60110849854e-05
-1.55451947539e-05
-1.55962813364e-05
-1.54232551415e-05
-1.49195368222e-05
-1.47572790485e-05
-1.40717454088e-05
-1.36958718287e-05
-1.32667896699e-05
-1.20122474658e-05
-1.18391736512e-05
-1.11554757106e-05
-9.46318108773e-06
-9.54097542978e-06
-8.76436599195e-06
-7.01104939401e-06
-7.41159475976e-06
-6.73826018042e-06
-5.31854835215e-06
-6.02054737402e-06
-5.55082591092e-06
-4.69003025798e-06
-5.40105489135e-06
-5.17275429574e-06
-4.81674494789e-06
-5.23134201727e-06
-5.18445091838e-06
-5.19465550713e-06
-5.21337845636e-06
-5.29478959202e-06
-5.55912945057e-06
-5.25069714935e-06
-5.42312905289e-06
-5.86256645411e-06
-5.3305899292e-06
-5.55934244088e-06
-6.10007819061e-06
-5.40972996201e-06
-5.6557393674e-06
-6.21284394549e-06
-5.3903644679e-06
-5.60977918374e-06
-6.0885923242e-06
-5.16486872879e-06
-5.32185784043e-06
-5.65253985872e-06
-4.75260130443e-06
-4.83542657648e-06
-5.00016156143e-06
-4.37721293034e-06
-4.40178894842e-06
-4.44265559397e-06
-4.33408241721e-06
-4.33068811077e-06
-4.31553447669e-06
-4.72163730314e-06
-4.71250615421e-06
-4.68823308528e-06
-5.29739128043e-06
-5.28552241462e-06
-5.25530528888e-06
-5.61036135736e-06
-5.58550884936e-06
-5.52632911634e-06
-5.33289472485e-06
-5.28827109619e-06
-5.1839532435e-06
-4.4725114763e-06
-4.40730696142e-06
-4.25959875066e-06
-3.27137191141e-06
-3.1924303417e-06
-3.01440588529e-06
-2.02947028237e-06
-1.9459463482e-06
-1.76028723798e-06
-1.0248989404e-06
-9.50045893581e-07
-7.85856834371e-07
-4.67159920921e-07
-4.15447361322e-07
-3.04976620321e-07
-5.24441182353e-07
-5.1161601921e-07
-4.89389971999e-07
-1.30633605163e-06
-1.3379259495e-06
-1.41224011783e-06
-2.25128100407e-12
-1.11078168059e-10
-6.97884017891e-09
-3.30616295242e-07
-1.77943996419e-05
-2.65588698998e-05
-2.11291892173e-05
-1.55086118541e-05
-1.50515157969e-05
-2.09029837683e-05
-4.10251935505e-05
-7.742246206e-05
-9.54273048668e-05
-9.41487312253e-05
-8.23227257735e-05
-6.91945607737e-05
-6.16839025687e-05
-6.31088323165e-05
-6.8488626272e-05
-7.15314505637e-05
-6.8213558166e-05
-5.83946312984e-05
-4.46432113574e-05
-3.10988165777e-05
-2.04400949137e-05
-1.44094826943e-05
-1.27815093382e-05
-1.35848686651e-05
-1.4942092707e-05
-1.57240091248e-05
-1.54992894053e-05
-1.42750137748e-05
-1.21500003181e-05
-9.39817749139e-06
-6.57483233903e-06
-4.39711042828e-06
-3.48319729219e-06
-3.74396533775e-06
-4.56321194069e-06
-5.41063722699e-06
-6.09268280093e-06
-6.60684060693e-06
-6.94720250731e-06
-7.03769841478e-06
-6.764169804e-06
-6.09085535655e-06
-5.19554259696e-06
-4.4685487782e-06
-4.27286115423e-06
-4.63914820408e-06
-5.19640857289e-06
-5.4246486403e-06
-5.0179198617e-06
-4.03403981402e-06
-2.75072227645e-06
-1.49071864832e-06
-5.52811903565e-07
-1.55004829249e-07
-4.70248785049e-07
-1.52820102536e-06
-1.71449636195e-18
-2.52412851526e-18
-4.24536299298e-18
-6.22654561325e-18
-5.1287506596e-18
-2.65264351293e-18
-9.5788793315e-19
-2.57615659136e-19
-5.42457056852e-20
-9.19530654497e-21
-1.27280896995e-21
-1.45327903837e-22
-1.38007623165e-23
-1.09852115635e-24
-7.39259609783e-26
-4.2513507502e-27
-2.12119659228e-28
-9.35721844815e-30
-3.80085427372e-31
-2.75010062089e-32
-4.06161641407e-17
-5.54489147042e-17
-9.91542773951e-17
-1.53356760473e-16
-1.15750474398e-16
-5.27709667822e-17
-1.66430283249e-17
-3.92037950095e-18
-7.31208777215e-19
-1.10729906715e-19
-1.38048376104e-20
-1.43223609863e-21
-1.24792781097e-22
-9.21306929778e-24
-5.82112524151e-25
-3.18822235049e-26
-1.5422434715e-27
-6.747533166e-29
-2.76989333892e-30
-2.08346316647e-31
-2.46683783877e-15
-7.95629848588e-16
-1.4602909769e-15
-2.10898286457e-15
-1.44275324557e-15
-6.0224537177e-16
-1.6792921589e-16
-3.55188248946e-17
-6.01773609387e-18
-8.33207010873e-19
-9.56778611417e-20
-9.21621045386e-21
-7.51854938888e-22
-5.24327851753e-23
-3.15961596371e-24
-1.66892625525e-25
-7.89133303874e-27
-3.44818175352e-28
-1.43925721088e-29
-1.07781053868e-30
-6.97421394771e-13
-5.35868525579e-14
-2.94130915854e-14
-3.0756322102e-14
-1.66953359945e-14
-5.96649342697e-15
-1.30573037424e-15
-2.71052677498e-16
-4.29230317278e-17
-5.59576229548e-18
-6.09309781013e-19
-5.60429215937e-20
-4.39469190006e-21
-2.96494243326e-22
-1.73980578108e-23
-9.01344384485e-25
-4.21746981909e-26
-1.84914707989e-27
-8.03379148376e-29
-7.12843033532e-30
-1.06492362292e-10
-3.40535595492e-12
-1.2396922822e-12
-4.6936692657e-13
-1.78897100108e-13
-5.42613281973e-14
-1.26230926773e-14
-1.80759534682e-15
-3.01979657496e-16
-3.68870732813e-17
-3.80843372383e-18
-3.35452499746e-19
-2.54102193678e-20
-1.66871199195e-21
-9.59759868904e-23
-4.90687626763e-24
-2.28282722203e-25
-1.00637632225e-26
-4.56730356139e-28
-5.12527610378e-29
-2.30780963483e-08
-2.29682790275e-09
-1.45845737651e-10
-9.65026919035e-12
-2.04528064632e-12
-4.99807448662e-13
-1.00768271382e-13
-1.64359368201e-14
-1.78632354173e-15
-2.29229494009e-16
-2.24620862032e-17
-1.90087963234e-18
-1.39716958184e-19
-8.97562185143e-21
-5.08447291135e-22
-2.57577152176e-23
-1.1943484983e-24
-5.28715321935e-26
-2.47750197974e-27
-3.07174000497e-28
-2.5200159978e-06
1.2021266819e-07
-2.26385549542e-08
-1.01580491685e-09
-3.55136745474e-11
-4.53955357981e-12
-7.44551208467e-13
-1.07391852628e-13
-1.33858236894e-14
-1.27370603761e-15
-1.20893896855e-16
-9.91875603953e-18
-7.13534732488e-19
-4.51900477645e-20
-2.53781104988e-21
-1.28005965902e-22
-5.92878721559e-24
-2.62814636762e-25
-1.25344143235e-26
-1.57747293579e-27
0.00016178800882
-1.72573238302e-05
-5.85968583237e-07
-3.89822665446e-08
-1.23933804567e-09
-4.09745515567e-11
-4.51452220046e-12
-5.79008710743e-13
-6.39677517073e-14
-6.87230313525e-15
-5.70873073432e-16
-4.62208427493e-17
-3.30639738195e-18
-2.09082776789e-19
-1.17550608344e-20
-5.94394623923e-22
-2.75895448306e-23
-1.22247397382e-24
-5.87449380166e-26
-7.07108047601e-27
-3.9866832932e-05
0.000622334497128
-2.02952323988e-05
-3.04700327748e-07
-8.30650058881e-09
-1.95316386577e-10
-1.68153039749e-11
-2.12371824933e-12
-2.53393810298e-13
-2.67634647897e-14
-2.16228255607e-15
-1.8730297092e-16
-1.36422224053e-17
-8.76576965408e-19
-4.99714432122e-20
-2.55518488168e-21
-1.19411396175e-22
-5.28999498467e-24
-2.54772815185e-25
-2.82242400198e-26
-0.00012775175722
-0.000213848542586
-1.29049720001e-05
-1.92583306561e-07
-9.33722038537e-09
-3.60349726336e-10
-3.51958482683e-11
-5.17443429121e-12
-7.04971268545e-13
-7.81880717588e-14
-7.00274460263e-15
-6.58579847389e-16
-4.99635245459e-17
-3.31867519248e-18
-1.94222490085e-19
-1.01287113944e-20
-4.78978142695e-22
-2.12527038823e-23
-1.0240083268e-24
-1.02282133542e-25
-6.88189434978e-05
-0.000130246401208
-6.43414941977e-07
-3.79676427683e-07
-2.05260180752e-08
-8.98640104966e-10
-7.76273565777e-11
-1.18712214592e-11
-1.79835238831e-12
-2.28212082771e-13
-2.4863825562e-14
-2.07637674938e-15
-1.65307135969e-16
-1.14491763188e-17
-6.9291083959e-19
-3.70656925632e-20
-1.78070389784e-21
-7.93238405706e-23
-3.82494033329e-24
-3.41394099559e-25
-5.68562165473e-05
0.000291828030749
-1.77449160678e-05
-4.59740060475e-07
-1.98903895627e-08
-5.34280583866e-09
-2.54472961113e-10
-3.02657510687e-11
-4.55966047932e-12
-6.06286977788e-13
-6.80080916139e-14
-5.37556934382e-15
-5.03481823345e-16
-3.63383282131e-17
-2.27954614945e-18
-1.25479612944e-19
-6.14298936438e-21
-2.75506318787e-22
-1.33175331752e-23
-1.06008957991e-24
-8.12325890239e-05
0.00047279914811
-4.80949826402e-05
-2.15504039956e-06
-1.09324216705e-07
-9.96288104493e-09
-5.44694860599e-10
-5.79069970249e-11
-9.41348693326e-12
-1.37658086243e-12
-1.5741353093e-13
-1.69624952933e-14
-1.38856442576e-15
-1.0527157207e-16
-6.89196608537e-18
-3.92455714003e-19
-1.96639659552e-20
-8.91591787465e-22
-4.33381802067e-23
-3.08577546937e-24
-0.000213101916709
0.000454848898344
0.000124672037513
-2.57786104501e-05
-4.36369227724e-07
-1.64164986188e-08
-9.25622021357e-10
-9.28801332921e-11
-1.61194715938e-11
-2.67383668746e-12
-3.59753399267e-13
-4.06081846146e-14
-3.4701571585e-15
-2.7835428637e-16
-1.91508868893e-17
-1.13452515253e-18
-5.84668387058e-20
-2.6936261129e-21
-1.32196006292e-22
-8.47440636328e-24
-0.000399584221081
0.000478455721009
0.00225002698053
-0.000199573642011
-3.6226015465e-06
-9.68919424109e-08
-2.48453338541e-09
-1.75787081014e-10
-2.68584418133e-11
-4.76252113756e-12
-7.08682028747e-13
-8.55150693091e-14
-7.10739102762e-15
-6.78656659349e-16
-4.91981547843e-17
-3.0430924703e-18
-1.61966180186e-19
-7.62028099123e-21
-3.79262181227e-22
-2.20810655706e-23
-0.000415977575066
-0.000362020410119
0.000181327052281
-0.000139304192657
-7.47758869101e-06
-2.24074299313e-07
-8.00161458232e-09
-3.77855287599e-10
-4.65135496731e-11
-8.18308610562e-12
-1.29333217774e-12
-1.61962674712e-13
-1.59078659718e-14
-1.53121433933e-15
-1.17218500706e-16
-7.59791180062e-18
-4.1937761168e-19
-2.02534244677e-20
-1.02690301051e-21
-5.48468220119e-23
-0.000332378598094
-8.20061654041e-05
-0.000580073948172
-7.3697014928e-05
-4.29544567441e-06
-1.67153458977e-07
-1.04022938195e-08
-5.66009985886e-10
-6.80466472845e-11
-1.25604828196e-11
-2.18289716827e-12
-3.08802566698e-13
-3.63475087932e-14
-3.19636826035e-15
-2.59503138132e-16
-1.77075134959e-17
-1.01818094542e-18
-5.07413469544e-20
-2.63289275228e-21
-1.30383422813e-22
-0.000237278359767
-6.15463213614e-05
-0.00020356745096
-4.12948265496e-05
-3.2553090729e-06
-1.1031039753e-07
-8.30924383701e-09
-6.57262295296e-10
-8.5654349836e-11
-1.68874375086e-11
-3.29888783064e-12
-5.16482285367e-13
-6.5687112243e-14
-6.06481894103e-15
-5.37922571095e-16
-3.87397042134e-17
-2.32857794705e-18
-1.20311028508e-19
-6.4150342254e-21
-2.97713828531e-22
-0.000166938329831
-1.75328203112e-05
-0.000103521476054
0.000170513497538
-2.50000827248e-05
-3.63774902631e-07
-1.18626585118e-08
-7.6538785889e-10
-1.02111059576e-10
-2.10836709758e-11
-4.57859939194e-12
-8.01801912841e-13
-1.10333027611e-13
-1.01586121842e-14
-1.05179356537e-15
-8.00376493885e-17
-5.04193519393e-18
-2.71140495178e-19
-1.49080262642e-20
-6.55123230692e-22
-0.00012825439903
4.59099781821e-05
-0.000200973723681
0.000688042228906
-9.52677491974e-05
-2.21900709779e-06
-6.04464062197e-08
-1.87428558168e-09
-1.57028107245e-10
-2.76247285587e-11
-6.18587551788e-12
-1.18474869321e-12
-1.73312592002e-13
-1.833500098e-14
-1.94862067055e-15
-1.56794659304e-16
-1.03792216455e-17
-5.83058983808e-19
-3.31565921195e-20
-1.39325518893e-21
-0.000112931857001
5.07214349512e-05
-0.000591956449912
0.00202570434379
-0.000229635172177
-1.33499184615e-05
-4.21429573269e-07
-1.23969444691e-08
-4.23932998712e-10
-4.70481360872e-11
-9.05955416297e-12
-1.75238472525e-12
-2.71005120521e-13
-3.60639777142e-14
-3.44096336305e-15
-2.92876816305e-16
-2.04101660936e-17
-1.20116232314e-18
-7.08111513041e-20
-2.87099767497e-21
-9.58725987772e-05
2.30678463418e-05
-0.000495633304871
0.000537207437862
-0.000226509644429
-1.220235341e-05
-3.95948007027e-07
-1.6689961048e-08
-6.49643634303e-10
-6.95307200116e-11
-1.27104036163e-11
-2.55566439611e-12
-4.28241341046e-13
-5.84570380487e-14
-5.87078560576e-15
-5.26245738268e-16
-3.85825311462e-17
-2.38192140059e-18
-1.45753347847e-19
-5.74735877198e-21
-6.96928959277e-05
-9.1669081269e-06
-0.000270822214821
-0.00025245722417
-0.000135058252215
-7.7169698735e-06
-2.30016850459e-07
-1.13983878651e-08
-7.23924965906e-10
-8.58482333854e-11
-1.61629529498e-11
-3.46303002029e-12
-6.28284904692e-13
-9.06918175471e-14
-9.1253906271e-15
-9.15258811967e-16
-7.04884395719e-17
-4.56642192563e-18
-2.9016406964e-19
-1.1204487304e-20
-4.33996990251e-05
-1.9261402733e-05
-0.000137735132638
-0.000145192993857
1.92648787324e-06
-1.34518574715e-05
-4.43437231063e-07
-1.52411052322e-08
-8.79103631131e-10
-1.0045441281e-10
-1.93283885905e-11
-4.38148063297e-12
-8.70060428302e-13
-1.34301219206e-13
-1.37769990852e-14
-1.54158629361e-15
-1.24640871523e-16
-8.48169027383e-18
-5.59923106969e-19
-2.13018735898e-20
-2.40669242798e-05
-1.73585810342e-05
-6.97604571489e-05
-0.000112725335197
0.000197028483655
-3.53319445525e-05
-1.84023933959e-06
-5.86617703627e-08
-2.27718864642e-09
-1.45791455197e-10
-2.3621744422e-11
-5.34485748059e-12
-1.14946176651e-12
-1.88690246821e-13
-2.24341588119e-14
-2.49862167185e-15
-2.12847332652e-16
-1.52564811064e-17
-1.04762276411e-18
-3.94895502641e-20
-1.32183771621e-05
-1.28994766543e-05
-3.66674814737e-05
-0.000247231980575
0.000694605277352
-0.00010385969334
-5.1663114154e-06
-1.49035325608e-07
-5.23551316178e-09
-2.23117422276e-10
-2.97461638399e-11
-6.43742025143e-12
-1.45603562017e-12
-2.57744032878e-13
-3.76552457738e-14
-3.88341420925e-15
-3.50211901565e-16
-2.65398307206e-17
-1.89894993028e-18
-7.12919996753e-20
-8.81451844946e-06
-1.0489759821e-05
-2.23642494082e-05
-0.000357691367006
0.000786395526297
-0.000166071488914
-7.98618240508e-06
-2.06900486056e-07
-6.71050167433e-09
-2.89670087958e-10
-3.57772835967e-11
-7.48479166929e-12
-1.78391955797e-12
-3.49438464488e-13
-5.32745198346e-14
-5.8266468926e-15
-5.56477094191e-16
-4.46745971102e-17
-3.33420132763e-18
-1.25218708779e-19
-9.11982349754e-06
-1.09598350084e-05
-1.90719984623e-05
-0.000371051010723
0.000584335536937
-0.000186355466493
-9.13267413919e-06
-2.63127293982e-07
-7.93533486039e-09
-3.52131994285e-10
-4.18205784936e-11
-8.59527183367e-12
-2.10923622676e-12
-4.45191590893e-13
-7.25281169221e-14
-8.22378153111e-15
-8.58028682566e-16
-7.29566498183e-17
-5.67782526191e-18
-2.14003378723e-19
-1.19137780019e-05
-1.1732436129e-05
-2.01932027596e-05
-0.000329798004528
0.000425070173909
-0.000162432782784
1.27659577721e-06
-1.80845863693e-06
-4.64779669978e-08
-1.1460227541e-09
-6.90929198634e-11
-1.10811581022e-11
-2.50482454499e-12
-5.56984753659e-13
-9.63632280088e-14
-1.10673503917e-14
-1.2919106828e-15
-1.15993467778e-16
-9.39868606057e-18
-3.56274805942e-19
-1.49661534722e-05
-1.04130274142e-05
-2.00675316876e-05
-0.000267147114026
0.000281831208536
-7.64134817263e-05
-2.25639401234e-05
-1.36860668835e-06
-4.97686706113e-08
-2.01255177575e-09
-1.02399532792e-10
-1.43389484875e-11
-3.0006752127e-12
-6.87823209166e-13
-1.25172184308e-13
-1.5174520718e-14
-1.90070191358e-15
-1.79906090564e-16
-1.51503790741e-17
-5.78372378248e-19
-1.69351537207e-05
-7.50813300023e-06
-1.86225433412e-05
-0.000208378230128
0.000156929439823
6.77830285029e-05
-3.8293775793e-05
-2.01112791998e-06
-6.25205492507e-08
-2.62619170114e-09
-1.29802495255e-10
-1.72209018678e-11
-3.52075223902e-12
-8.25198943483e-13
-1.57892238068e-13
-2.26116307582e-14
-2.72090944648e-15
-2.71886557173e-16
-2.37782494803e-17
-9.15237918457e-19
-1.72468159045e-05
-3.84637173543e-06
-1.73978695826e-05
-0.00016650058136
6.19994857355e-05
0.000214841409593
-6.83749440487e-05
-3.4578292653e-06
-1.02286789863e-07
-3.29776827503e-09
-1.58582378514e-10
-1.98122394357e-11
-3.99904672878e-12
-9.48689407303e-13
-1.95344546365e-13
-3.24994903599e-14
-3.78627572171e-15
-3.99936875501e-16
-3.63041786226e-17
-1.41015974905e-18
-1.60001280028e-05
-2.37873826118e-07
-1.73542503327e-05
-0.000139673799336
1.71121257223e-06
0.000273565901383
-9.41240057848e-05
-3.66604448347e-06
-3.28381067227e-07
-8.78962422453e-09
-2.66430566717e-10
-2.44753170484e-11
-4.61024307882e-12
-1.07641750154e-12
-2.42894099994e-13
-4.18455625812e-14
-5.14453241479e-15
-5.73492906785e-16
-5.39387348403e-17
-2.11470374118e-18
-1.36083226731e-05
2.35797859362e-06
-1.88423403542e-05
-0.000122134443408
-3.60440513163e-05
0.000298128741148
-0.000111140451452
-6.83157718921e-06
-3.09753528976e-07
-1.02063048324e-08
-4.09370735746e-10
-3.05540781636e-11
-5.31584428517e-12
-1.23380996177e-12
-2.85526006056e-13
-5.2344620617e-14
-6.71977083205e-15
-8.03914080992e-16
-7.81087963688e-17
-3.08921368383e-18
-1.05561144322e-05
3.15554102165e-06
-2.12582773366e-05
-0.000108136265193
-6.58967525685e-05
0.00030531177732
-0.000119966145494
-7.58419896477e-06
-3.55503326323e-07
-1.17991190237e-08
-5.56766282333e-10
-3.54797622507e-11
-5.80433211981e-12
-1.33916549997e-12
-3.26757401381e-13
-6.37402123453e-14
-8.33261733091e-15
-1.10470709548e-15
-1.10441592499e-16
-4.40222285131e-18
-7.26470419424e-06
2.4462305807e-06
-2.34008551536e-05
-9.5892169345e-05
-7.45723428928e-05
0.000281547049275
-9.77007787296e-05
-1.24873840168e-05
-6.0377417383e-07
-1.80618818207e-08
-7.70349056784e-10
-4.209262497e-11
-6.32139229983e-12
-1.40321273501e-12
-3.61916430185e-13
-7.52834458952e-14
-1.0281216195e-14
-1.48632258388e-15
-1.52509271596e-16
-6.12329788413e-18
-4.30115023571e-06
4.90485044505e-07
-2.50854931041e-05
-8.55005740268e-05
-6.99761748769e-05
0.000247502357853
-6.54643316759e-05
-2.02333194597e-05
-1.01096292798e-06
-3.79461589255e-08
-1.25790943048e-09
-5.58349272678e-11
-6.95024864403e-12
-1.48249164895e-12
-3.90589732968e-13
-8.61917609461e-14
-1.30358476888e-14
-1.95199138066e-15
-2.05470289326e-16
-8.31170742571e-18
-2.3664135091e-06
-2.32606492231e-06
-2.64938098767e-05
-7.69503600457e-05
-6.00235856306e-05
0.000217144405714
-3.71381939874e-05
-2.86054271714e-05
-4.90811431908e-07
-1.94073500605e-07
-4.63707298737e-09
-1.1682061192e-10
-9.18422998873e-12
-1.68740347767e-12
-4.1474923738e-13
-9.65647242592e-14
-1.75838206097e-14
-2.49369256133e-15
-2.69616897862e-16
-1.10013624163e-17
-1.94308094263e-06
-5.48898245629e-06
-2.76626508464e-05
-6.95393132688e-05
-4.79477867957e-05
0.000188057820206
-1.45048817115e-05
-3.58251898376e-05
-2.86624859003e-06
-1.19580100231e-07
-4.19205280977e-09
-1.73945678845e-10
-1.16454043707e-11
-1.90932659676e-12
-4.35178638457e-13
-1.07498398776e-13
-2.18211667697e-14
-3.11309544473e-15
-3.45124338983e-16
-1.42124015459e-17
-2.8707160591e-06
-8.45099926053e-06
-2.84625920345e-05
-6.23474323211e-05
-3.50575075244e-05
0.00015794333617
5.25841109434e-06
-4.22509645651e-05
-2.91039963865e-06
-1.17598113766e-07
-4.52610609943e-09
-2.35506517801e-10
-1.3911793142e-11
-2.1615739376e-12
-4.56571231396e-13
-1.21041574999e-13
-2.5421367953e-14
-3.81498705747e-15
-4.32115902237e-16
-1.79547924289e-17
-4.44611663877e-06
-1.08672199465e-05
-2.8777159313e-05
-5.48866860011e-05
-2.28054761158e-05
0.000132064968873
2.01645557076e-05
-4.7660061722e-05
-3.3779275255e-06
-1.42992384006e-07
-6.15484488274e-09
-3.27046643448e-10
-1.69614309346e-11
-2.3227372307e-12
-4.94002329884e-13
-1.31951843915e-13
-2.89530603123e-14
-4.5955463946e-15
-5.30232215706e-16
-2.22247248105e-17
-5.99810477729e-06
-1.2655979581e-05
-2.84761974047e-05
-4.69033669422e-05
-1.16845763193e-05
0.000109646724543
3.01720152441e-05
-5.14650238959e-05
-3.81186839507e-06
-1.61138019377e-07
-1.06755780162e-08
-4.91027405513e-10
-2.16912720281e-11
-2.56580087578e-12
-5.2112986608e-13
-1.4065332568e-13
-3.22962534634e-14
-5.43882437753e-15
-6.39092326481e-16
-2.70330378979e-17
-7.23265433655e-06
-1.38659963076e-05
-2.73984727117e-05
-3.83665113482e-05
-2.12176324214e-06
9.05872498814e-05
3.61062931295e-05
-5.32505124001e-05
-4.17503148984e-06
-6.44432922112e-08
-3.12872798383e-08
-9.77768400936e-10
-3.32691593408e-11
-3.03797916261e-12
-5.61670551205e-13
-1.49604277069e-13
-3.53700417311e-14
-6.19113532733e-15
-7.60752402752e-16
-3.24912522554e-17
-8.13199276791e-06
-1.45147229231e-05
-2.53817787192e-05
-2.94939607326e-05
5.56167083814e-06
7.48057242431e-05
3.81198122822e-05
-5.17865086222e-05
-4.68576762165e-06
-2.93965113628e-07
-2.61561423565e-08
-1.27811779304e-09
-5.33495791871e-11
-3.73880450386e-12
-6.3886120325e-13
-1.5923729888e-13
-3.81122629619e-14
-6.99280246477e-15
-8.96238150824e-16
-3.8737749521e-17
-8.72516657446e-06
-1.45230407491e-05
-2.23409202451e-05
-2.07184317215e-05
1.1215569719e-05
6.17976817903e-05
3.65463108311e-05
-4.79521088634e-05
-5.45620219859e-06
-4.4423710733e-07
-1.09942315743e-08
-1.52224415833e-09
-8.78221409782e-11
-4.74750404093e-12
-7.17570130614e-13
-1.69901599182e-13
-4.05156697787e-14
-7.84804986463e-15
-1.04466931483e-15
-4.58705030699e-17
-8.9685176299e-06
-1.37693050966e-05
-1.8349724753e-05
-1.26451816472e-05
1.47241362998e-05
5.09253412683e-05
3.27802298236e-05
-4.36287152872e-05
-6.26270340649e-06
-4.75695953154e-07
-9.17689549446e-09
-2.11945256754e-09
-1.39761719674e-10
-6.22908621987e-12
-8.19249496012e-13
-1.8262757513e-13
-4.26049100277e-14
-8.75411549376e-15
-1.20314762389e-15
-5.39339381887e-17
-8.75238674502e-06
-1.21845641073e-05
-1.37308355307e-05
-5.96084127832e-06
1.62082852486e-05
4.22464536916e-05
2.6955649352e-05
-3.92492827782e-05
-6.84763785063e-06
-5.46629475424e-07
-1.43087699559e-08
-2.42251488913e-09
-2.22389709247e-10
-8.60926170073e-12
-9.62267747696e-13
-1.97737165316e-13
-4.44878251276e-14
-9.702016837e-15
-1.36821670681e-15
-6.29843219258e-17
-7.98942783099e-06
-9.88766690605e-06
-9.10942218989e-06
-1.22280783262e-06
1.59836541895e-05
3.49761580341e-05
2.19664942147e-05
-3.54905993702e-05
-7.08432246217e-06
-6.00892353696e-07
-1.08878176116e-08
-4.06961505822e-09
-3.142864683e-10
-1.25949393655e-11
-1.13508858931e-12
-2.16785305088e-13
-4.64374621846e-14
-1.06872436911e-14
-1.53768041989e-15
-7.3166748037e-17
-6.75599273344e-06
-7.29847389427e-06
-5.29797541641e-06
1.41500419418e-06
1.45701845998e-05
2.90003491081e-05
1.72712063752e-05
-3.25095564042e-05
-6.9158079885e-06
-6.22490287285e-07
-2.90017057167e-09
-6.82718273759e-09
-4.25455372873e-10
-2.02387989751e-11
-1.41147447609e-12
-2.4316367798e-13
-4.89799238517e-14
-1.17308199518e-14
-1.71170522898e-15
-8.47411848124e-17
-5.39390213806e-06
-5.08764140214e-06
-2.9375807176e-06
2.28138205379e-06
1.2601587519e-05
2.42544710182e-05
1.28391551053e-05
-3.01606771469e-05
-6.36009970475e-06
-6.00153117644e-07
-2.9186665747e-08
-5.45714245417e-09
-4.49577765014e-10
-3.35477668169e-11
-1.94468329899e-12
-2.79150894774e-13
-5.27914121367e-14
-1.28986426119e-14
-1.89425531158e-15
-9.80747766817e-17
-4.41564315632e-06
-3.84550790466e-06
-2.10552220171e-06
2.03252778642e-06
1.06845754383e-05
2.05603035046e-05
8.61030214464e-06
-2.81702396181e-05
-5.48730639849e-06
-5.39580837798e-07
-4.12140253449e-08
-2.27505865013e-09
-4.31005198277e-10
-5.76636946041e-11
-2.66288696616e-12
-3.25042224164e-13
-5.79584248758e-14
-1.42708219458e-14
-2.09200598364e-15
-1.13602330732e-16
-4.17030161715e-06
-3.67374894337e-06
-2.299064615e-06
1.42692020072e-06
9.28674202815e-06
1.76238797555e-05
4.4997199298e-06
-2.62537345629e-05
-4.41426438499e-06
-4.41275566039e-07
-3.61083970383e-08
-3.74985956071e-10
-4.56406758816e-10
-7.97910419787e-11
-3.88010036265e-12
-3.89911621333e-13
-6.4868730632e-14
-1.59674197579e-14
-2.31622937814e-15
-1.31885469322e-16
-4.5578087784e-06
-4.12320468658e-06
-2.73703197276e-06
1.09162504725e-06
8.63397695125e-06
1.51014939012e-05
3.19803590786e-07
-2.33394213387e-05
-3.44793408143e-06
-3.50407665087e-07
-3.22942287929e-08
9.25072112588e-10
-5.64075327223e-10
-1.05781422692e-10
-6.02274569407e-12
-4.9628673906e-13
-7.49718927638e-14
-1.81893234418e-14
-2.58540654044e-15
-1.53734008718e-16
-5.08157331665e-06
-4.50669688859e-06
-2.78765449026e-06
1.39112176622e-06
8.58108849258e-06
1.24230808577e-05
-3.99468572774e-06
-1.90449173342e-05
-2.76395507337e-06
-3.07377770488e-07
-3.22059159749e-08
2.04163075167e-09
-7.8179358499e-10
-1.40106818887e-10
-9.63076273727e-12
-6.81599799644e-13
-9.12619403169e-14
-2.12253014643e-14
-2.92437348809e-15
-1.80232725885e-16
-5.19123218791e-06
-4.31705106572e-06
-2.16012131338e-06
2.28907085241e-06
8.64168424558e-06
9.15046646426e-06
-7.91524494789e-06
-1.46986652749e-05
-2.2992206113e-06
-2.87437354961e-07
-3.43156475453e-08
2.71485064113e-09
-1.06305264107e-09
-1.78741550529e-10
-1.92881613529e-11
-9.722347903e-13
-1.15075566757e-13
-2.51448462543e-14
-3.34290576213e-15
-2.12159443738e-16
-4.63309604192e-06
-3.44224710006e-06
-9.48809576701e-07
3.43374164904e-06
8.2235425273e-06
5.21241830749e-06
-1.11953436959e-05
-1.08432412522e-05
-1.85196215651e-06
-2.61017636049e-07
-3.55461951022e-08
2.36839300355e-09
-1.26339001116e-09
-2.43583737979e-10
-2.8625395127e-11
-1.40947459026e-12
-1.552277144e-13
-3.01634451095e-14
-3.84776313764e-15
-2.50236988131e-16
-3.52185328717e-06
-2.10640349651e-06
4.858485061e-07
4.30457515913e-06
6.86029609412e-06
9.1821138193e-07
-1.3588775184e-05
-7.30702986353e-06
-1.3724881709e-06
-2.18467767493e-07
-3.38751361526e-08
1.25416680238e-09
-1.22544129079e-09
-2.9889694956e-10
-4.22083555833e-11
-2.11296376255e-12
-2.12974849207e-13
-3.6657135426e-14
-4.44865530474e-15
-2.95557356374e-16
-2.1669059205e-06
-6.88336271031e-07
1.68088305307e-06
4.39536514145e-06
4.35304149091e-06
-3.32146254192e-06
-1.40439924781e-05
-4.30982345199e-06
-8.99447765021e-07
-1.62424888236e-07
-2.8758780223e-08
9.0911132269e-11
-8.96631058016e-10
-3.34402302971e-10
-5.95585265549e-11
-3.41919729356e-12
-2.86143527221e-13
-4.53127068219e-14
-5.18115812631e-15
-3.50864600952e-16
-9.1376413886e-07
4.25281284506e-07
2.21790310926e-06
3.37569219967e-06
8.12159526305e-07
-7.33925759745e-06
-9.68837231795e-06
-2.58527309332e-06
-5.86311513322e-07
-1.17582848901e-07
-2.32888175591e-08
-6.9793715563e-10
-4.1955492778e-10
-3.44482167195e-10
-8.16275288401e-11
-5.50710202976e-12
-4.01465426886e-13
-5.65004597154e-14
-6.08382490682e-15
-4.20879527488e-16
-8.00735279782e-08
8.87124760451e-07
1.76631460201e-06
1.17545875741e-06
-2.94472701259e-06
-9.93706607898e-06
-5.33081562638e-06
-1.51934987118e-06
-3.75663562325e-07
-8.31947945979e-08
-1.82859151919e-08
-1.05329379457e-09
3.6316768809e-11
-3.31726983649e-10
-1.07791050494e-10
-8.74980847846e-12
-5.7384276933e-13
-7.02528572649e-14
-7.20120513045e-15
-5.1314020605e-16
1.12147881686e-07
4.82252170576e-07
2.15778136844e-07
-1.85023394485e-06
-6.34721743477e-06
-7.46426823015e-06
-2.65800701063e-06
-8.2471306322e-07
-2.24993676295e-07
-5.53114951605e-08
-1.36020050045e-08
-1.0759854922e-09
4.03070302124e-10
-2.94869355184e-10
-1.3111554629e-10
-1.37705482241e-11
-8.37556611304e-13
-8.68404527707e-14
-8.61482113048e-15
-6.40190918366e-16
-5.02215655292e-07
-8.61145157506e-07
-2.10246091608e-06
-4.70552468556e-06
-7.09652964427e-06
-3.20998578621e-06
-1.23262367586e-06
-4.16624450803e-07
-1.25391028364e-07
-3.41877272996e-08
-9.49504280304e-09
-9.18038146118e-10
6.58723688637e-10
-2.45212332299e-10
-1.58410846045e-10
-2.62021641153e-11
-1.21119977639e-12
-1.05547110756e-13
-1.03723112384e-14
-8.17598307053e-16
-1.83143515542e-06
-2.67890314405e-06
-4.16560973499e-06
-5.10558768155e-06
-2.72953835876e-06
-1.27717053808e-06
-5.30794856209e-07
-1.96379617647e-07
-6.52555935474e-08
-1.97696603436e-08
-6.27757623682e-09
-8.51361436885e-10
9.20680006687e-10
-1.62044022135e-10
-1.80103191922e-10
-3.4242159522e-11
-1.69250044533e-12
-1.20486540218e-13
-1.21181244987e-14
-1.03481299582e-15
-3.38583487295e-30
-3.1199592667e-31
-2.15267204097e-29
-2.80365018481e-30
-1.16394550774e-28
-1.60568178545e-29
-5.07340370464e-28
-6.10547074106e-29
-1.83225784718e-27
-1.91490998359e-28
-5.86679473707e-27
-5.48858329239e-28
-1.73343154914e-26
-1.48615378979e-27
-4.81555753679e-26
-3.85107765522e-27
-1.27255617064e-25
-9.6266776837e-27
-3.22803560445e-25
-2.33653776221e-26
-7.91124141226e-25
-5.53317427258e-26
-1.88109242588e-24
-1.26702433285e-25
-4.35011334589e-24
-2.82617600632e-25
-9.79911620799e-24
-6.1820337883e-25
-2.15299547284e-23
-1.32566378855e-24
-4.61959344964e-23
-2.78858659336e-24
-9.68957868373e-23
-5.75928584658e-24
-1.98856539289e-22
-1.16888393652e-23
-3.99738466273e-22
-2.33390655835e-23
-7.87801904997e-22
-4.59288037015e-23
-1.5224418797e-21
-8.89804104599e-23
-2.88180842577e-21
-1.69291351752e-22
-5.33195014871e-21
-3.15668951292e-22
-9.625343024e-21
-5.75825841239e-22
-1.69401807564e-20