/*--------------------------------*- C++ -*----------------------------------*\
  =========                 |
  \\      /  F ield         | OpenFOAM: The Open Source CFD Toolbox
   \\    /   O peration     | Website:  https://openfoam.org
    \\  /    A nd           | Version:  dev
     \\/     M anipulation  |
\*---------------------------------------------------------------------------*/
FoamFile
{
    version     2.0;
    format      ascii;
    class       volScalarField;
    location    "0.3";
    object      edc::R_CH3;
}
// * * * * * * * * * * * * * * * * * * * * * * * * * * * * * * * * * * * * * //

dimensions      [1 -3 -1 0 0 0 0];

internalField   nonuniform List<scalar> 
1629
(
2.31405861789e-18
2.7514568792e-18
3.84334906038e-18
3.90749262822e-16
6.63970112958e-16
1.79362234036e-15
3.31565401157e-14
8.98740228784e-14
4.99611791923e-13
2.01419908296e-12
8.49510553115e-12
7.85309575801e-11
7.97275167709e-11
3.27714056017e-10
1.90092037043e-09
3.35909621568e-09
1.43218378051e-08
1.41893479392e-07
1.59652005028e-07
1.66407365293e-06
2.07069611963e-05
8.10738672786e-06
8.2666797812e-05
0.000948565176859
-1.09217033364e-06
-1.33377358105e-05
-0.000269057682668
-4.66368504135e-05
-0.000176157837502
-0.000863614893286
-0.000123559609767
-0.000306735860596
-0.00092093769571
-0.000215837954041
-0.00040346749306
-0.00089829963308
-0.000321882206657
-0.000509678258525
-0.00097248472749
-0.000441220525417
-0.000636679985776
-0.0011510806408
-0.000564013601367
-0.000772962286094
-0.00136201765242
-0.000664790062816
-0.000869023721912
-0.00144431916522
-0.000719482512305
-0.000897694260372
-0.0013753754212
-0.00072157663605
-0.000866116395668
-0.00122881757616
-0.000682061523588
-0.000792463568591
-0.0010637996789
-0.00062377128854
-0.000709297735131
-0.000928220366052
-0.00057057347298
-0.000647264758742
-0.000850567375368
-0.000531986469906
-0.000607077625374
-0.000808412579745
-0.000502791783023
-0.000575311313203
-0.000766392433073
-0.000474767757868
-0.00054104697292
-0.000711174764426
-0.000445072553968
-0.000503392492436
-0.000649281466607
-0.000416480711576
-0.000467652827302
-0.0005932200588
-0.00039304586461
-0.000439451313756
-0.000550955988748
-0.000377337929311
-0.000420037263564
-0.000522292855066
-0.000367505739304
-0.000406996247127
-0.000501864593498
-0.000360746571258
-0.000397639789987
-0.000486833904029
-0.000355558854666
-0.000390736955874
-0.000475800913208
-0.00035311448297
-0.00038727521955
-0.000470143262195
-0.00035653957175
-0.000390570239436
-0.00047366506581
-0.000367308683699
-0.000401928573155
-0.000487254243379
-0.000385214281297
-0.00042180169748
-0.000510419886043
-0.000410303286611
-0.000448569620673
-0.00054073787761
-0.000441674663722
-0.000481882206939
-0.000577980596891
-0.000480227646615
-0.000522273274867
-0.000622243460209
-0.000526623878475
-0.000571118498897
-0.000675891390219
-0.000583603632917
-0.000631081666348
-0.000742094043297
-0.000655869794124
-0.00070698229708
-0.00082800960977
-0.00074960942582
-0.000806832621974
-0.000941843290147
-0.00087181505631
-0.000936867680488
-0.00108976126214
-0.0010277693734
-0.00110220509184
-0.00127608765466
-0.00122113468589
-0.00130578820113
-0.00150172306564
-0.00145086893772
-0.00154478013647
-0.00175962356562
-0.00170557488495
-0.00180497299954
-0.0020291994945
-0.00195870274063
-0.00205643662222
-0.00227323911129
-0.00216824235175
-0.00225503166562
-0.00244416956764
-0.00229186519744
-0.00235942167351
-0.00250355555822
-0.00231451698225
-0.00235887789037
-0.00245096665044
-0.00227189751849
-0.00229525695605
-0.0023415680635
-0.00224228980194
-0.00225112690422
-0.00226670198976
-0.00228826139351
-0.00228855766203
-0.00228620464487
-0.00238831839342
-0.00238180573594
-0.00236478012142
-0.00244698611824
-0.00243257307319
-0.00239793165382
-0.00237993292315
-0.00235608704748
-0.00230104678829
-0.00216330807815
-0.00213012275015
-0.00205445641123
-0.00182398296371
-0.00178304997989
-0.00169110186408
-0.00141760635528
-0.00137328738512
-0.00127493057684
-0.000995926201584
-0.000954285684986
-0.000863207031403
-0.000566219624108
-0.000532318694587
-0.000459516142843
-0.000115232100084
-9.32057693516e-05
-4.73120728931e-05
3.70161361933e-10
7.34840560628e-09
1.36250051628e-06
0.000150553753815
0.00714649458287
-0.00110848904543
-0.00249453030456
-0.00193152138498
-0.00160606117782
-0.00158373473258
-0.0021075316214
-0.00275408095219
-0.00275201307564
-0.00233896633383
-0.00191261962888
-0.00156256191921
-0.00133713753502
-0.00125379073591
-0.00120824795455
-0.00113276988211
-0.00102274269203
-0.000905253153981
-0.000806873601741
-0.000737416705324
-0.000691970358633
-0.00066105926752
-0.000637872360055
-0.000621213380722
-0.000612933225821
-0.000616398293114
-0.000632778062839
-0.000659831841046
-0.000694445722877
-0.000735529774425
-0.000784664615573
-0.000844113672768
-0.000920470469311
-0.00102253426689
-0.00115823766482
-0.0013331666778
-0.00155004960766
-0.00180611004862
-0.00208730545341
-0.0023634429623
-0.00258826799999
-0.00271087056978
-0.00269965442348
-0.00256999922839
-0.00239596020631
-0.00227944516414
-0.00227454514895
-0.00233242468914
-0.00234026275959
-0.00221449883345
-0.00193962969045
-0.00155475358869
-0.00113214323978
-0.000734222882208
-0.000359328077558
1.20213698155e-05
-2.38213141764e-18
-3.64600273314e-18
-9.33280608319e-18
-1.42913963654e-17
-1.09796655924e-17
-5.11917452115e-18
-1.66905609146e-18
-4.12937031411e-19
-8.18154618575e-20
-1.33377243584e-20
-1.81014707322e-21
-2.06025008506e-22
-1.97770505513e-23
-1.60996964509e-24
-1.1186720138e-25
-6.69250573227e-27
-3.49257290537e-28
-1.61573712346e-29
-6.84309161263e-31
-2.85623302904e-32
3.49885626825e-15
3.59342833372e-15
2.40765029314e-15
7.55991228116e-16
-2.86930967249e-17
-6.87591364692e-17
-2.26973019874e-17
-4.96662146669e-18
-8.63904796878e-19
-1.24899975534e-19
-1.52113166725e-20
-1.57207520917e-21
-1.38679863186e-22
-1.05042529141e-23
-6.88218720965e-25
-3.94029326225e-26
-2.00331521631e-27
-9.22660156067e-29
-3.92499041423e-30
-1.62323588629e-31
2.97781715679e-12
5.66027019905e-13
3.46424972519e-13
1.02496881985e-13
1.09103946117e-14
3.82817701513e-17
-1.63935205794e-16
-3.63097248955e-17
-5.7914522891e-18
-7.64213412784e-19
-8.55792323938e-20
-8.20420575551e-21
-6.77383764419e-22
-4.84710310681e-23
-3.03046577926e-24
-1.67514838885e-25
-8.34070295206e-27
-3.84710812712e-28
-1.65697101581e-29
-6.4339440474e-31
7.44710497699e-10
3.25615594807e-10
3.49446578778e-11
5.29102382553e-12
5.08879526162e-13
2.35165549933e-14
-3.88855469997e-16
-2.21648286703e-16
-3.55222306751e-17
-4.45871194615e-18
-4.74811177022e-19
-4.3538096707e-20
-3.45945907529e-21
-2.3967817115e-22
-1.46015500895e-23
-7.92347942332e-25
-3.91027183565e-26
-1.81494524352e-27
-8.08283487832e-29
-3.61990719254e-30
2.67915164276e-08
1.59938340967e-08
1.67173477091e-09
1.56642401754e-10
1.46093954005e-11
7.45210971598e-13
1.60277904136e-14
-9.75679631608e-16
-2.05572799316e-16
-2.52195223522e-17
-2.5786973878e-18
-2.28398113553e-19
-1.76609243825e-20
-1.19872647006e-21
-7.19845177067e-23
-3.87455097739e-24
-1.91039012854e-25
-8.95837979541e-27
-4.13918017994e-28
-2.23851391201e-29
4.77506043276e-06
7.03884806366e-06
1.34362642553e-07
4.22597747359e-09
3.23475064285e-10
1.7136718789e-11
5.22934999671e-13
3.55457787674e-15
-9.83495426678e-16
-1.30231096137e-16
-1.30081378094e-17
-1.12400262033e-18
-8.53932421309e-20
-5.73148940241e-21
-3.42199179728e-22
-1.84031601682e-23
-9.11100357894e-25
-4.31858065254e-26
-2.0437839493e-27
-1.20824364714e-28
0.000471539583727
0.000206990796229
4.04184763872e-07
1.79227766869e-07
6.49982805095e-09
3.11020057027e-10
9.53089227329e-12
1.71811213812e-13
-2.29281088208e-15
-5.72745704966e-16
-5.84657528166e-17
-5.02304196315e-18
-3.8022468869e-19
-2.55303003764e-20
-1.52990446867e-21
-8.27945149082e-23
-4.13217810093e-24
-1.97696203842e-25
-9.44106846023e-27
-5.70343487839e-28
0.0162784048167
-0.00133205259392
0.000146760769319
-1.87635167396e-05
-1.65151845416e-07
7.79488406703e-10
8.02356561696e-11
1.92748657694e-12
1.44076835285e-14
-1.88806364806e-15
-2.24083020448e-16
-1.97972950688e-17
-1.52548052314e-18
-1.04098119565e-19
-6.33540180719e-21
-3.47888761352e-22
-1.75802307474e-23
-8.48111740611e-25
-4.04700211193e-26
-2.38509589353e-27
-0.00949166901425
0.0363034396561
-0.00135678842309
-2.56682589024e-05
-4.94544368311e-07
-4.40187221099e-09
1.23731727806e-10
7.52911435083e-12
1.39289290736e-13
-3.99364865933e-15
-7.1127049059e-16
-6.77390502277e-17
-5.45083582416e-18
-3.84812829188e-19
-2.40958831523e-20
-1.35474918908e-21
-6.96698513774e-23
-3.39064134153e-24
-1.60909928342e-25
-8.98768752207e-27
-0.00810904072651
-0.00938797279138
-0.000902341710829
-1.39550325206e-05
-5.75259550353e-07
-1.24759478841e-08
2.16177827788e-11
1.84426216947e-11
6.22275072557e-13
-1.83211295855e-15
-1.86455520636e-15
-2.02943861911e-16
-1.74121751567e-17
-1.29069023667e-18
-8.40894127351e-20
-4.88013343271e-21
-2.56682328965e-22
-1.26226855148e-23
-5.95119861792e-25
-3.10493247291e-26
-0.00410043521262
-0.00722915057261
-0.000187875029826
-2.37427854673e-05
-1.07577324259e-06
-2.89477705123e-08
-2.43638716208e-10
4.14809202533e-11
2.39375366025e-12
3.5029764563e-14
-3.93354677499e-15
-5.42768008804e-16
-5.04571031759e-17
-3.96351803026e-18
-2.70672315176e-19
-1.63101361091e-20
-8.81022231774e-22
-4.38715406837e-23
-2.05696585072e-24
-9.97102346997e-26
-0.00295207789256
0.0150516296563
-0.00103820753358
3.46011292768e-06
-5.12633635765e-06
-1.50623927658e-07
-6.52350694203e-10
1.95179446835e-10
1.1543146185e-11
2.42934007924e-13
-5.22077604892e-15
-1.30695106809e-15
-1.34743466927e-16
-1.12762151807e-17
-8.10287536868e-19
-5.0873719705e-20
-2.83047462134e-21
-1.43031322502e-22
-6.68285612815e-24
-3.00975917663e-25
-0.00309235629177
0.0133013899094
-0.00553604842545
-0.00020775513079
-1.53891069095e-05
-5.43619603264e-07
-1.12286613626e-08
3.38825799501e-10
3.30496152954e-11
1.39087640741e-12
9.07190993911e-15
-2.74413781976e-15
-3.35044957622e-16
-3.00230510932e-17
-2.27504955056e-18
-1.49116218949e-19
-8.56246111979e-21
-4.39996312594e-22
-2.05400067862e-23
-8.62372371892e-25
-0.00595003063207
-0.0366283592779
0.105793112161
-0.0100694978049
-0.000135780712836
-2.8546146198e-06
-5.07586417823e-08
-1.45259421458e-10
9.88691797029e-11
5.16709975229e-12
1.08300025253e-13
-4.46249470389e-15
-7.75592609162e-16
-7.54747124975e-17
-6.04086561108e-18
-4.13686915581e-19
-2.45476263447e-20
-1.28524936415e-21
-6.01214705207e-23
-2.36661086573e-24
-0.00995549008944
-0.141885823683
0.431113543249
-0.0393377252285
-0.000686909553913
-1.68854552693e-05
-2.62102150158e-07
-2.51552398288e-09
2.45442155828e-10
1.89455335396e-11
5.92612332397e-13
-1.81876640713e-15
-1.652980261e-15
-1.8054332202e-16
-1.52927150171e-17
-1.09398022622e-18
-6.71224173163e-20
-3.58708477418e-21
-1.68661515388e-22
-6.26973992548e-24
-0.00854180495984
-0.0799792641863
-0.0508348067752
-0.0195681934331
-0.00107759578282
-2.73251651987e-05
-7.97937142658e-07
-1.31998364501e-08
4.96024048278e-10
5.37835595594e-11
2.22966686395e-12
3.08552378417e-14
-3.05845272314e-15
-4.12057195668e-16
-3.71108780075e-17
-2.77270841836e-18
-1.75976073123e-19
-9.61622347264e-21
-4.5597281777e-22
-1.6138525775e-23
-0.00585467060448
-0.0332624562633
-0.0610602417369
-0.0104310187886
-0.000621931637891
-2.3241579516e-05
-1.17644481076e-06
-3.70459508465e-08
5.52942766755e-10
1.51851471612e-10
8.30185996187e-12
1.86856540649e-13
-3.94965759332e-15
-8.84370567627e-16
-8.62723221531e-17
-6.74841648885e-18
-4.43651251429e-19
-2.48496838554e-20
-1.19273527916e-21
-4.05546347499e-23
-0.00415800197092
-0.0167283083456
-0.0175213322016
0.00496786684877
-0.00162957141231
-3.44139584686e-05
-1.86600719364e-06
-8.08100240276e-08
-5.33147756645e-10
2.23874492519e-10
2.08992978751e-11
7.30389437026e-13
3.76625975331e-16
-1.73322843303e-15
-1.91116201599e-16
-1.57579051482e-17
-1.0763756991e-18
-6.20103591178e-20
-3.02613688609e-21
-9.97933415706e-23
-0.00314317067988
-0.0111666592396
-0.0332020168185
0.0869709580167
-0.0107805006016
-0.000143693561825
-4.21345039794e-06
-1.70036080326e-07
-4.62357427318e-09
3.43354460214e-10
4.65602832088e-11
2.33504321884e-12
3.08873543317e-14
-2.93055802009e-15
-4.0093316643e-16
-3.52546901783e-17
-2.51320178928e-18
-1.4954668298e-19
-7.45636519016e-21
-2.40846881737e-22
-0.00267780693802
-0.0104238102406
-0.0734643030616
0.18565920738
-0.0270151380194
-0.000553682254575
-1.54556590199e-05
-4.9778138337e-07
-1.78452516131e-08
2.75894033911e-10
1.00663737135e-10
5.14550051416e-12
1.54390730076e-13
-3.5594757262e-15
-7.91785794476e-16
-7.55661023343e-17
-5.6505499523e-18
-3.48795711032e-19
-1.78563507083e-20
-5.70476185429e-22
-0.00264982550595
-0.0125326890662
-0.12552760508
0.303157211048
-0.0402724212276
-0.00237204884238
-7.14423352795e-05
-1.83770290023e-06
-5.33182128089e-08
-2.86813780887e-10
2.02634328397e-10
1.56474092213e-11
5.59008234059e-13
4.76259668049e-16
-1.44768260527e-15
-1.55275186448e-16
-1.22502670699e-17
-7.87564776748e-19
-4.1588195176e-20
-1.32629447515e-21
-0.00257171552907
-0.0117947990554
-0.100733557765
0.0815666154053
-0.0377051179369
-0.00206370563279
-6.79455448775e-05
-2.70239870465e-06
-1.20483794275e-07
-2.80138886647e-09
3.08561352277e-10
3.98655661734e-11
1.68192618758e-12
2.15074531005e-14
-2.35703065521e-15
-3.05317523859e-16
-2.563285928e-17
-1.72303937027e-18
-9.42459295291e-20
-3.02574520195e-21
-0.00229479949757
-0.00908208971916
-0.0594212960384
-0.0133891845264
-0.0163350232804
-0.00232937603368
-5.66216390899e-05
-2.90691507698e-06
-1.89389155942e-07
-8.98139565015e-09
2.46490636898e-10
6.62858740439e-11
4.38028635196e-12
8.37779256024e-14
-3.05977383812e-15
-5.70900915636e-16
-5.17514566144e-17
-3.65359868953e-18
-2.07828038327e-19
-6.76904816398e-21
-0.0019294688601
-0.00658860057883
-0.0345954652409
-0.0184520374126
0.0323235415021
-0.00707326495486
-0.00016879107439
-5.49879537236e-06
-3.02663942379e-07
-2.07761748645e-08
-2.79470886649e-10
9.36946010807e-11
9.95499961516e-12
2.80597159438e-13
-1.70883362488e-15
-1.00505752906e-15
-1.00692111924e-16
-7.50746837086e-18
-4.4583901115e-19
-1.48351976714e-20
-0.00160146316443
-0.00495224888166
-0.0227557993329
-0.0316288477089
0.0817403493952
-0.0137044434302
-0.000717710245015
-2.13224800928e-05
-7.16521566652e-07
-3.723953139e-08
-1.19472577474e-09
1.1427574288e-10
1.34951802123e-11
7.84799387053e-13
7.02506963724e-15
-1.62949531563e-15
-1.88472894306e-16
-1.49455488161e-17
-9.30084792957e-19
-3.18154398325e-20
-0.00137105068505
-0.00410542690405
-0.0183008249985
-0.0672814596094
0.175919035747
-0.0290725478711
-0.00148309797593
-4.21810461053e-05
-1.39118344584e-06
-7.08444336423e-08
-3.11484667236e-09
1.45825407634e-10
2.37465352294e-11
1.90674842957e-12
3.58996349853e-14
-2.33134277323e-15
-3.38458685692e-16
-2.88204531864e-17
-1.88631596715e-18
-6.6696808991e-20
-0.00123481077421
-0.00373664203833
-0.0166111834085
-0.083621373301
0.161591848132
-0.0389966973057
-0.00192477356293
-5.09512554816e-05
-1.8662549989e-06
-1.06745433624e-07
-6.65826177148e-09
5.6539780513e-14
5.28929257161e-11
4.04235291253e-12
1.11272701809e-13
-2.62330953423e-15
-5.8056642172e-16
-5.38279241541e-17
-3.71892487223e-18
-1.36564640457e-19
-0.00116036402315
-0.00354940098792
-0.015327742887
-0.0810975965077
0.121030209983
-0.0412900076474
-0.00208523162705
-5.225466957e-05
-1.96092818703e-06
-1.33235548397e-07
-1.18470532475e-08
-4.11197493663e-10
7.47908584488e-11
7.62921673506e-12
2.10921422965e-13
-1.15286502033e-15
-9.44395937064e-16
-9.73635718554e-17
-7.12877518191e-18
-2.72969312357e-19
-0.00111545541807
-0.00340046698366
-0.0139895947775
-0.0712400969027
0.0918911249149
-0.021481712894
-0.00406526008444
-0.000129774049134
-3.81623770742e-06
-1.837794149e-07
-1.89887381227e-08
-1.32380482978e-09
2.58816113642e-11
1.26799144144e-11
4.47188107528e-13
5.21703841974e-15
-1.44011178715e-15
-1.70493516696e-16
-1.3291319086e-17
-5.32496630237e-19
-0.00108230274204
-0.00323338184716
-0.0125321402281
-0.0594778875999
0.0616621941004
0.00775026999478
-0.00780731773504
-0.000399310001419
-1.12880348425e-05
-3.91198527547e-07
-2.71829185674e-08
-2.27702633726e-09
-4.35117060839e-11
1.76247393974e-11
9.56135950287e-13
2.28614130322e-14
-2.00327522393e-15
-2.88636256815e-16
-2.4108489192e-17
-1.0135581487e-18
-0.00105426302826
-0.00304484748156
-0.0110549186276
-0.0484885089683
0.0284764403525
0.0474593606575
-0.0150993897051
-0.000775984739847
-2.10796843409e-05
-7.05190768689e-07
-4.38056540588e-08
-3.61856500189e-09
-1.45453155019e-10
1.28310395072e-11
1.87811245269e-12
6.34497639492e-14
-2.39742408703e-15
-4.71021156134e-16
-4.25323067675e-17
-1.8816612116e-18
-0.00103513004693
-0.00287222811022
-0.0098250371335
-0.0401233707745
0.00165965222374
0.079195853195
-0.0236430532247
-0.00122442238026
-3.28009498294e-05
-1.09525712862e-06
-6.30299420425e-08
-5.64203994768e-09
-3.45806284548e-10
-8.14459857247e-12
3.35286851228e-12
1.45210556337e-13
-2.05042851218e-15
-7.37535295338e-16
-7.29419097748e-17
-3.40557250125e-18
-0.00103221938346
-0.00275080552059
-0.00895835586009
-0.0343824279177
-0.0131138530084
0.086805206102
-0.0295487424664
-0.00158524093462
-5.36611454609e-05
-1.68638194175e-06
-8.2640502421e-08
-8.32371651777e-09
-7.00216543324e-10
-1.64610869146e-11
5.22130346166e-12
2.93969540047e-13
1.67298922778e-16
-1.10110782222e-15
-1.21543966765e-16
-6.00722573434e-18
-0.00104732565574
-0.00268334030287
-0.00840021031951
-0.0304583261534
-0.0208992891369
0.0899132270599
-0.0330859318751
-0.00184097990944
-7.74193239192e-05
-2.23778962918e-06
-1.21674625413e-07
-1.08346531688e-08
-1.12136204919e-09
-2.26483571058e-11
6.92079012404e-12
2.78556472131e-13
6.27938135564e-15
-1.55260469958e-15
-1.966979708e-16
-1.03277552788e-17
-0.00107457923602
-0.00264789881401
-0.00800568548302
-0.0273653042332
-0.0260456764061
0.0886563295955
-0.0302107406408
-0.00279555059527
-0.000125826901007
-3.33471264291e-06
-1.97489751708e-07
-1.45147916155e-08
-1.60288636162e-09
-8.12673302236e-11
7.98021396048e-12
1.95896707033e-13
1.96955776142e-14
-2.03672530481e-15
-3.08934188174e-16
-1.73089335132e-17
-0.00110865992643
-0.00263401931349
-0.00771534550673
-0.0247753724609
-0.0273164189255
0.0780585928922
-0.0114020098735
-0.00622654470419
-0.000299353619413
-6.71457413976e-06
-3.59012144034e-07
-2.25248572836e-08
-2.34832925335e-09
-1.81606234865e-10
6.66089829538e-12
2.43966306142e-13
4.50241087257e-14
-2.41433861225e-15
-4.7043629866e-16
-2.82885352302e-17
-0.00114986474955
-0.00265364539298
-0.00753997443645
-0.0226579208887
-0.0258985277651
0.0670017727916
-0.00263421284158
-0.00967042160653
-0.000509862395615
-1.32036030938e-05
-6.09119848681e-07
-3.5961453989e-08
-3.37500111274e-09
-3.20112131269e-10
-1.39785944313e-12
3.68619472833e-13
8.8149236204e-14
-2.4299704051e-15
-6.93915429236e-16
-4.51153957485e-17
-0.00120360202705
-0.00272306630557
-0.00750138350707
-0.0209978356131
-0.0232748635202
0.0581476596716
0.00489449743502
-0.0126349452819
-0.000629716661689
-3.53262353892e-05
-1.14954058414e-06
-5.49543406493e-08
-4.84375777579e-09
-5.21878768171e-10
-2.46896849636e-11
4.03028701152e-13
1.55095929625e-13
-1.70167791194e-15
-9.90582017964e-16
-7.02856633921e-17
-0.00127853174083
-0.00285212926347
-0.00758652509832
-0.0196358161917
-0.0200863204405
0.0503211895976
0.0111593955367
-0.0150379894341
-0.00100045152617
-3.44922886437e-05
-1.33718440536e-06
-9.47554509853e-08
-6.72804538735e-09
-7.75878982825e-10
-6.19791538516e-11
1.06827357596e-13
2.42535080555e-13
2.1685230262e-16
-1.36655730057e-15
-1.07062847791e-16
-0.00138383823931
-0.00304031018142
-0.0077492440294
-0.018349238308
-0.0165996504275
0.0424894526275
0.0168908536118
-0.0171453301604
-0.00116339538084
-4.28629426394e-05
-1.69558654725e-06
-1.61398345148e-07
-9.72212118616e-09
-1.10782106979e-09
-1.08086448304e-10
-9.38801317849e-13
3.42910491339e-13
3.58524511626e-15
-1.81835383081e-15
-1.59519683155e-16
-0.00152732522922
-0.00328473327522
-0.00794695287923
-0.0170116711679
-0.0131523445818
0.0359189986004
0.0212703178412
-0.0189863441992
-0.00134673040227
-5.53577645181e-05
-2.03079061118e-06
-2.68869371669e-07
-1.50928992405e-08
-1.54579935029e-09
-1.63292622989e-10
-4.8197306681e-12
3.29290885831e-13
7.89753176322e-15
-2.33146194017e-15
-2.32510281744e-16
-0.00171413046714
-0.00357985534086
-0.00813117411236
-0.0155385136293
-0.00984368660131
0.030405827566
0.0242609784186
-0.0203898674384
-0.00151193330118
-6.46198798432e-05
-2.98510229322e-06
-4.41662457218e-07
-2.35236172042e-08
-2.20463415195e-09
-2.50393322459e-10
-1.21441597176e-11
-3.39382798438e-13
1.10038204324e-14
-2.88872800698e-15
-3.31660407621e-16
-0.00194643732471
-0.00391213796021
-0.00823990862962
-0.013882064148
-0.00675992020045
0.0258597895913
0.0260477568073
-0.0210519808575
-0.0016949242889
-4.91869820401e-05
-7.84582974687e-06
-7.46816530921e-07
-3.72271980718e-08
-3.10427647286e-09
-3.71144326061e-10
-2.44870430137e-11
-1.44188855546e-12
1.0662556986e-14
-3.50043070051e-15
-4.63377717161e-16
-0.00222129318964
-0.00425250663905
-0.00820028308493
-0.0120358549682
-0.00398562793606
0.0221321778331
0.025758183297
-0.0180869877684
-0.00239288300524
-0.000154947438487
-3.84854397547e-06
-1.06619291897e-06
-6.38719188405e-08
-4.38648324021e-09
-5.2927183562e-10
-4.44660378406e-11
-3.16711172116e-12
-4.17492589217e-15
-4.27684135451e-15
-6.34765668467e-16
-0.00252477953824
-0.00455052193421
-0.00794002225519
-0.0100262372773
-0.00156831450478
0.0190967870654
0.0236797785257
-0.0144135470291
-0.00343424166198
-0.000252072057646
-1.36078007687e-06
-1.35821271605e-06
-1.16865209498e-07
-6.47691013457e-09
-7.38622853017e-10
-7.38759636435e-11
-5.75305931341e-12
-5.29340597479e-14
-5.57543752165e-15
-8.53634731904e-16
-0.00282622606844
-0.00473970518055
-0.007407057403
-0.00791706026347
0.000444543054717
0.0166373374349
0.0210058842193
-0.0122055261373
-0.00431553648764
-0.000322812937611
-3.46185466492e-06
-1.69088036977e-06
-1.97470448286e-07
-9.78847771746e-09
-1.02316179181e-09
-1.14226736185e-10
-9.48687414982e-12
-1.69673857633e-13
-8.25499045604e-15
-1.12957546499e-15
-0.00307742755791
-0.00475174322734
-0.00658929330844
-0.00581661177848
0.00202172550858
0.0148034424374
0.0177137495852
-0.0105396087764
-0.0048926250388
-0.000389938691931
-7.88868707044e-06
-1.5428630254e-06
-3.22159439539e-07
-1.50820317074e-08
-1.41268575183e-09
-1.67974381367e-10
-1.47198829541e-11
-4.0943515416e-13
-1.39557541621e-14
-1.47778252387e-15
-0.003220897428
-0.00453883557022
-0.00553383560465
-0.00387618587591
0.00311363971656
0.0132376566355
0.0150474159003
-0.00939080934733
-0.00516988650572
-0.000438419664551
-8.22416077027e-06
-1.85086754872e-06
-4.7699249279e-07
-2.36913884623e-08
-1.91367271411e-09
-2.37469620012e-10
-2.19075465875e-11
-8.54389139158e-13
-2.53388482383e-14
-1.92791572707e-15
-0.00320963671127
-0.00409968103726
-0.00435666122461
-0.00224722058078
0.00373801507122
0.0118772051241
0.0126606380374
-0.00877668583855
-0.00516275181314
-0.00046249110675
-1.16417955036e-05
-2.06714244713e-06
-6.15467772997e-07
-3.88046949785e-08
-2.63995011861e-09
-3.2501012048e-10
-3.16679417653e-11
-1.6169865809e-12
-4.72426157013e-14
-2.54150546102e-15
-0.00303451063345
-0.00350162417349
-0.00322864908806
-0.00103654405148
0.00398202855218
0.0107248115001
0.0105121260432
-0.0086881341366
-0.00488240865567
-0.000457798505458
-2.55178053766e-05
-6.77604326665e-07
-6.29432030357e-07
-6.43664850452e-08
-3.87072803484e-09
-4.3339960928e-10
-4.48369497919e-11
-2.83756710647e-12
-8.67920735161e-14
-3.44320765136e-15
-0.00274756365293
-0.0028786653349
-0.00231968921825
-0.000265877447365
0.00398682900524
0.00977775126593
0.00859267498213
-0.00915794950447
-0.00431893137329
-0.000422945349965
-3.07224363784e-05
1.02622551592e-06
-5.23870786482e-07
-1.05781808147e-07
-5.90265538123e-09
-5.80792322323e-10
-6.26618505337e-11
-4.68315337052e-12
-1.53947139312e-13
-4.87205082529e-15
-0.00245720266589
-0.00238222434235
-0.00172446469573
0.000150501379677
0.0039238816571
0.00901555701403
0.00692731356981
-0.0103580189247
-0.00343494502313
-0.000343602756957
-2.88322365065e-05
2.28003160265e-06
-4.33336676937e-07
-1.58214649908e-07
-9.34220087112e-09
-7.97280783159e-10
-8.71287983044e-11
-7.35745811024e-12
-2.61874523885e-13
-7.25784414185e-15
-0.00227449774199
-0.00209781307177
-0.00140708612933
0.00038300507728
0.00395094023793
0.0083645835676
0.00533921304305
-0.0118659842864
-0.00230208504284
-0.000238969983959
-2.4110437353e-05
3.38691183546e-06
-3.92989375314e-07
-2.17663216149e-07
-1.49203569192e-08
-1.12793071725e-09
-1.21380069842e-10
-1.11275112444e-11
-4.27442015447e-13
-1.13261013706e-14
-0.00223165020812
-0.00198555912291
-0.00122749841226
0.000613724465665
0.00408995669914
0.0074453743163
0.00317614544154
-0.0105797222849
-0.00158265207315
-0.000180354405991
-2.13803648016e-05
4.06195472552e-06
-3.58887783857e-07
-2.76408094305e-07
-2.38623694457e-08
-1.6411899496e-09
-1.70221275745e-10
-1.63653515118e-11
-6.72046314571e-13
-1.8235364439e-14
-0.002249598478
-0.00191116723313
-0.00102259725346
0.000940450823885
0.00421390454937
0.00599418938751
0.00117791409678
-0.00839127222891
-0.00131356389104
-0.000165055393025
-2.1858345862e-05
3.89275361769e-06
-2.61553933118e-07
-3.2832624303e-07
-3.83267327029e-08
-2.47295134052e-09
-2.40895805725e-10
-2.36115160836e-11
-1.02302124113e-12
-2.97611818113e-14
-0.00220386614734
-0.00174345116654
-0.00069488165875
0.00135153557752
0.00414081572283
0.00411167760887
-0.000364548154792
-0.00674293579718
-0.00113943785873
-0.000159499314591
-2.33414878592e-05
2.93952652513e-06
-6.65588538142e-08
-3.67024290335e-07
-5.81608450113e-08
-3.74736436264e-09
-3.43016760673e-10
-3.35872609944e-11
-1.51476153953e-12
-4.85521979674e-14
-0.00201714957602
-0.00142803831519
-0.000246243665256
0.0017443214303
0.00373500626351
0.00232049210949
-0.00235555693229
-0.00510168110383
-0.000940795697628
-0.000147576103474
-2.39378376317e-05
1.63301284267e-06
2.06819597251e-07
-3.92950780688e-07
-8.36818497263e-08
-5.69340820151e-09
-4.84950101582e-10
-4.71598550174e-11
-2.18862562054e-12
-7.85242093019e-14
-0.00168445573051
-0.000989331468352
0.000248077773099
0.00198988952361
0.00302099713813
0.00141232518211
-0.00639942378283
-0.00305040623866
-0.00063283033432
-0.000113656556894
-2.11363881742e-05
5.62974073814e-07
5.59531907491e-07
-3.93943266232e-07
-1.12896334506e-07
-8.77854507731e-09
-6.80512597997e-10
-6.52125330753e-11
-3.09440205933e-12
-1.25522767499e-13
-0.00126005501748
-0.00052117722148
0.000620615748036
0.00181852479449
0.00173765576257
0.000271800297327
-0.00624990630242
-0.00170063732147
-0.000390760611701
-7.92714147227e-05
-1.69288300103e-05
-3.43420460327e-08
9.16994506172e-07
-3.58187731212e-07
-1.43982289568e-07
-1.33608904414e-08
-9.52455934196e-10
-8.85881856209e-11
-4.2918820781e-12
-1.98408923872e-13
-0.000834249029789
-0.000152233620918
0.000718456870191
0.00125629027031
0.000793969542689
-0.00252780971906
-0.00373511721023
-0.00105105414516
-0.000258075097054
-5.71557227608e-05
-1.36040689755e-05
-3.59029202285e-07
1.18282002077e-06
-2.88517244583e-07
-1.75822317398e-07
-1.99629189847e-08
-1.32794606949e-09
-1.17871781987e-10
-5.85365696618e-12
-3.10700022704e-13
-0.000477611687533
4.28372586421e-05
0.000540339402561
0.000651724635274
-0.000100895504825
-0.00503890414617
-0.00181102321711
-0.000563810113647
-0.000154015073496
-3.8097961966e-05
-1.03743570244e-05
-4.20510839183e-07
1.33419044325e-06
-1.96795043074e-07
-2.07276946495e-07
-2.90908706835e-08
-1.85459247767e-09
-1.53126284314e-10
-7.86831318862e-12
-4.82560330349e-13
-0.000168922408234
0.000174802622277
0.000447893193774
0.000198673624395
-0.00443121162268
-0.00216259233736
-0.000833033271345
-0.000282393189491
-8.5246468027e-05
-2.35270629506e-05
-7.4903857796e-06
-3.17004671474e-07
1.38141149684e-06
-9.85462298851e-08
-2.32646837158e-07
-4.13210780398e-08
-2.62376245743e-09
-1.93612721302e-10
-1.04280159316e-11
-7.44195034136e-13
0.00011085258355
0.000180842757719
-0.000431949909791
-0.0034937504204
-0.00189340915668
-0.000878051202884
-0.000363164246189
-0.000134050863254
-4.45624343809e-05
-1.37376854553e-05
-5.21669840493e-06
-2.89625233545e-07
1.41677602256e-06
2.00240837991e-08
-2.45154285299e-07
-5.66475519492e-08
-3.69061513545e-09
-2.34582636767e-10
-1.34970580871e-11
-1.13483350791e-12
-2.51355724961e-29
-5.36604365236e-29
-2.84229575234e-29
-6.08056951674e-29
-7.13584727054e-29
-1.02670405351e-28
-2.45706225934e-28
-2.61685137552e-28
-8.20802322765e-28
-6.60816710129e-28
-2.55894487602e-27
-1.68159289016e-27
-7.51589894124e-27
-4.27163404381e-27
-2.10100737234e-26
-1.07766470946e-26
-5.64284344836e-26
-2.69717847109e-26
-1.46964309147e-25
-6.7072115893e-26
-3.74174697801e-25
-1.66125103858e-25
-9.37132238486e-25
-4.03380817361e-25
-2.3192097046e-24
-9.64039986013e-25
-5.6878581579e-24
-2.30517305997e-24
-1.38433626561e-23
-5.51784440983e-24
-3.34415463284e-23
-1.3215975754e-23
-8.01250614943e-23
-3.16368978763e-23
-1.90175638651e-22
-7.55698870054e-23
-4.46454789143e-22
-1.79778021089e-22
-1.03474495e-21
-4.25166567541e-22
-2.36300792817e-21
-9.96606145001e-22
-5.3062440987e-21
-2.30779377224e-21
-1.16936742793e-20
-5.26571582018e-21
-2.52487593513e-20
-1.18130820806e-20
-5.33445008098e-20
-2.60111052552e-20
-1.10166356708e-19
-5.61549315128e-20
-2.22228195044e-19
-1.18626406918e-19
-4.37532817031e-19
-2.44838792075e-19
-8.40201485998e-19
-4.931293879e-19
-1.57296801821e-18
-9.68387560818e-19
-2.87057167906e-18
-1.85330605276e-18
-5.10729803109e-18
-3.45631466243e-18
-8.86223424036e-18
-6.28255526908e-18
-1.50078137958e-17
-1.11364994419e-17
-2.4828152375e-17
-1.92673597807e-17
-4.01658069247e-17
-3.25666541766e-17
-6.35838607905e-17
-5.3819734e-17
-9.85377132862e-17
-8.7011410284e-17
-1.49571926508e-16
-1.37695960509e-16
-2.22535262406e-16
-2.13432045797e-16
-3.24736168406e-16
-3.24223695165e-16
-4.64968575923e-16
-4.82859571973e-16
-6.53526993329e-16
-7.05118796907e-16
-9.0261195857e-16
-1.01003583966e-15
-1.22783153959e-15