/*--------------------------------*- C++ -*----------------------------------*\
  =========                 |
  \\      /  F ield         | OpenFOAM: The Open Source CFD Toolbox
   \\    /   O peration     | Website:  https://openfoam.org
    \\  /    A nd           | Version:  dev
     \\/     M anipulation  |
\*---------------------------------------------------------------------------*/
FoamFile
{
    version     2.0;
    format      ascii;
    class       volScalarField;
    location    "0.3";
    object      edc::YStar_HCO;
}
// * * * * * * * * * * * * * * * * * * * * * * * * * * * * * * * * * * * * * //

dimensions      [0 0 0 0 0 0 0];

internalField   nonuniform List<scalar> 
1629
(
1.31932383e-26
1.17512202465e-26
8.55455129606e-27
1.91219922907e-24
2.34254205758e-24
3.5175006358e-24
1.51400440518e-22
2.68460573352e-22
8.18776419122e-22
7.86111672923e-21
2.28251031274e-20
1.54133867219e-19
5.60574927032e-19
2.15118109111e-18
1.39648539851e-17
3.87792412681e-17
1.78437223384e-16
9.0273645051e-16
1.29325747445e-15
1.20985263239e-15
1.34996365569e-14
3.9024371732e-14
3.70210508809e-13
9.56786480686e-12
5.03121268608e-13
3.12599642523e-12
3.50288208626e-11
2.58371975459e-12
1.08754978544e-11
6.46951756535e-11
8.32099254746e-12
2.42234019216e-11
8.83103440495e-11
1.99419871253e-11
4.30892495695e-11
1.13000163684e-10
3.94303796023e-11
6.97443250036e-11
1.55351375122e-10
6.67466738782e-11
1.0227098815e-10
1.95845697729e-10
9.95161140451e-11
1.37876517281e-10
2.36135832726e-10
1.31143029558e-10
1.68153142342e-10
2.57637340771e-10
1.54618723019e-10
1.86587188822e-10
2.60216955116e-10
1.65845982758e-10
1.90673422636e-10
2.45403645721e-10
1.65089237712e-10
1.83038414786e-10
2.20955170315e-10
1.56307183231e-10
1.69441833635e-10
1.96605298627e-10
1.44825292575e-10
1.5559173696e-10
1.78460585327e-10
1.33803939246e-10
1.43557322125e-10
1.64449559786e-10
1.2317084782e-10
1.31861112519e-10
1.5057937113e-10
1.12345560145e-10
1.19800382561e-10
1.36018776832e-10
1.01764664818e-10
1.08247071274e-10
1.23021843848e-10
9.28473285455e-11
9.90923450105e-11
1.1422032812e-10
8.7490901407e-11
9.42989287491e-11
1.11729773784e-10
8.72086431881e-11
9.53371368706e-11
1.16379518536e-10
9.30803200382e-11
1.02924223797e-10
1.2783646804e-10
1.05210693174e-10
1.16665804051e-10
1.44870193047e-10
1.22819417988e-10
1.355732031e-10
1.66482041884e-10
1.45276144237e-10
1.5925310816e-10
1.92935414537e-10
1.73064766566e-10
1.88609189666e-10
2.26060307316e-10
2.08735029387e-10
2.26626570744e-10
2.69700592072e-10
2.5672066299e-10
2.7785587495e-10
3.28938261656e-10
3.23809421345e-10
3.49613845368e-10
4.11780914568e-10
4.2099645843e-10
4.53224588141e-10
5.30442827375e-10
5.646403444e-10
6.05618995393e-10
7.02927853102e-10
7.76729055872e-10
8.28695520333e-10
9.50980469075e-10
1.08078262841e-09
1.14555815503e-09
1.29645266198e-09
1.49838546796e-09
1.57727223929e-09
1.75813649427e-09
2.05235776758e-09
2.14572729256e-09
2.35830913216e-09
2.77819244141e-09
2.88779995009e-09
3.1361763507e-09
3.73677671143e-09
3.86575598555e-09
4.15730259037e-09
5.01815596057e-09
5.17101291283e-09
5.5162812157e-09
6.73514771143e-09
6.9174084359e-09
7.32896490844e-09
9.00102969872e-09
9.21790748636e-09
9.707187366e-09
1.18880591727e-08
1.21421473916e-08
1.27141194772e-08
1.53680768338e-08
1.56552505305e-08
1.62987486729e-08
1.92091842501e-08
1.95131418828e-08
2.01898497867e-08
2.28230213873e-08
2.31120237765e-08
2.37499192244e-08
2.52235023902e-08
2.54573500454e-08
2.59680501101e-08
2.54047327976e-08
2.55559470741e-08
2.58817516e-08
2.30768325815e-08
2.31494646246e-08
2.33030909642e-08
1.9043993125e-08
1.90689699792e-08
1.9120450172e-08
1.47211295584e-08
1.473418089e-08
1.47626631156e-08
1.13477753551e-08
1.13762366467e-08
1.14410649359e-08
9.65467408953e-09
9.7169986483e-09
9.85880434416e-09
9.98334542408e-09
1.0094909871e-08
1.0347477046e-08
1.25517584505e-08
1.27303407792e-08
1.31332097806e-08
1.77708873755e-08
1.80408229486e-08
1.86472528794e-08
2.63040465203e-08
2.66795826352e-08
2.75155270421e-08
3.65774699701e-08
3.69474290547e-08
3.7749754581e-08
5.62345233789e-19
5.13591045943e-17
9.26010626058e-17
1.88521133887e-13
2.02705714994e-10
2.84272721537e-10
2.60348416976e-10
2.2037359199e-10
2.43987023957e-10
3.42491475622e-10
3.87399883136e-10
4.23321582344e-10
4.10860648304e-10
3.77862889247e-10
3.2480901681e-10
2.72085776877e-10
2.33984714579e-10
2.11867798588e-10
1.96176013539e-10
1.79088992791e-10
1.61931978856e-10
1.48743555755e-10
1.42734193561e-10
1.45245207116e-10
1.5555900357e-10
1.71857286068e-10
1.9276507332e-10
2.17881461845e-10
2.48568102201e-10
2.88084319057e-10
3.41205003006e-10
4.13592858715e-10
5.14064616569e-10
6.56328737879e-10
8.59099766926e-10
1.14395701056e-09
1.52962431091e-09
2.03278586378e-09
2.67728617889e-09
3.50622518227e-09
4.59000173665e-09
6.02768363768e-09
7.93767114455e-09
1.04291670453e-08
1.35537242743e-08
1.72358925305e-08
2.11643830296e-08
2.46555813925e-08
2.66805440742e-08
2.63266683587e-08
2.35075603146e-08
1.91874410219e-08
1.48040538983e-08
1.15395860912e-08
1.00712800026e-08
1.07221431095e-08
1.37269515487e-08
1.95348884384e-08
2.87215191986e-08
3.8853453279e-08
2.56852904754e-30
6.20437617087e-29
3.62424447016e-28
7.24336436471e-28
4.7319642813e-28
1.2845575457e-28
1.75506488918e-29
1.37580219791e-30
7.14870209933e-32
3.18846270584e-33
1.95081547368e-34
1.70648179436e-35
1.49306434506e-36
1.13511986966e-37
7.37697618239e-39
4.13521930799e-40
2.03370933258e-41
8.96460172424e-43
3.57132529443e-44
4.56474965231e-46
9.01324454922e-28
1.78696927375e-26
1.43701509647e-25
3.40669056155e-25
1.91950747438e-25
4.03092130444e-26
4.12122637645e-27
2.39587339445e-28
8.95363940701e-30
2.33819444787e-31
5.35197138991e-33
2.00038162245e-34
1.3249815708e-35
9.18489879941e-37
5.65464786468e-38
3.06883632553e-39
1.49700729486e-40
6.73515839566e-42
2.73258563221e-43
3.69307124164e-45
3.26196152032e-25
1.91915631529e-24
2.06018183775e-23
5.5884432477e-23
2.65653266498e-23
4.37579464188e-24
3.48036786245e-25
1.6076384626e-26
4.87118123505e-28
1.01293377015e-29
1.55369156893e-31
2.44844322757e-33
8.5714435746e-35
5.12268333755e-36
3.02815167837e-37
1.61951033341e-38
7.94427585951e-40
3.68627586655e-41
1.54104236533e-42
2.10488705134e-44
1.13125412465e-19
2.8831347589e-22
2.57172761803e-21
5.93975058703e-21
2.3037365718e-21
3.11610952457e-22
2.058756912e-23
8.17665885284e-25
2.15857438304e-26
3.9440105507e-28
5.16982438787e-30
5.36161131193e-32
7.57849630678e-34
2.99767558674e-35
1.67779826778e-36
8.95654702345e-38
4.45111671864e-39
2.12081054766e-40
9.22080872747e-42
1.54033365335e-43
2.67022881803e-17
3.77407551054e-19
6.91663395498e-19
7.71562428912e-19
2.09696182548e-19
2.22734482557e-20
1.20328340271e-21
4.04451193934e-23
9.21219471572e-25
1.4832709635e-26
1.73869397799e-28
1.53443670505e-30
1.21697792455e-32
2.06975304369e-34
9.59611285728e-36
5.11285321337e-37
2.590865184e-38
1.26815408362e-39
5.70447802815e-41
1.21406723339e-42
7.31646967141e-16
4.84365721464e-15
5.27492744563e-16
1.18867402748e-16
1.82108337573e-17
1.46900880189e-18
6.43445639365e-20
1.78437890297e-21
3.44839287265e-23
4.89001642686e-25
5.19392750156e-27
4.20090199633e-29
2.71278760059e-31
2.1016072709e-33
5.69848563102e-35
2.92132211249e-36
1.51239952354e-37
7.57973444043e-39
3.45933774436e-40
8.10843097032e-42
4.22073977431e-12
2.65080169292e-11
7.24779102114e-13
2.58022411849e-14
1.27830759902e-15
7.55335609875e-17
2.69217484173e-18
6.1269825256e-20
1.01601487991e-21
1.2885042972e-23
1.27012102919e-25
9.76027889298e-28
5.91309911492e-30
3.21257400892e-32
3.90900488199e-34
1.68298756267e-35
8.8232096066e-37
4.49042690332e-38
2.03258082966e-39
4.81890778995e-41
2.42499330226e-09
1.46480476266e-08
6.7674054901e-11
1.27350531864e-12
2.85309292592e-14
1.6279042007e-15
6.08406667602e-17
1.26942477366e-18
1.95008027688e-20
2.38349609367e-22
2.3180506812e-24
1.7838381158e-26
1.08370924437e-28
5.40633243951e-31
3.55821482035e-33
1.00605182871e-34
5.16310311389e-36
2.63269421651e-37
1.15866221584e-38
2.62808300496e-40
1.80859232413e-09
7.83502274445e-08
1.63222526947e-10
2.64583291891e-12
7.92401081688e-14
4.18518476069e-15
2.86598151492e-16
9.38342577578e-18
1.8683036073e-19
2.68157728469e-21
2.91628223974e-23
2.440349559e-25
1.58117488213e-27
8.1040062376e-30
4.08120333418e-32
6.51586128381e-34
3.03973330926e-35
1.52443223209e-36
6.41968650072e-38
1.34664184436e-39
9.20743486999e-10
1.08337798234e-08
1.13384959986e-10
1.75501330596e-12
1.09661289761e-13
7.30289161502e-15
7.65089599775e-16
4.04352719074e-17
1.13494896293e-18
2.06600548115e-20
2.67863498676e-22
2.56456668977e-24
1.84731070078e-26
1.02288088891e-28
4.86743130391e-31
4.70565599137e-33
1.79463839944e-34
8.65655747198e-36
3.44814796293e-37
6.57976181575e-39
4.72855851821e-10
1.51963999029e-09
2.47119729378e-10
3.28156433883e-12
2.70174776083e-13
1.6870028872e-14
2.06728966342e-15
1.54165509225e-16
5.73191474561e-18
1.29438677969e-19
1.99552162512e-21
2.20437165657e-23
1.79064536681e-25
1.09321754539e-27
5.36838260008e-30
3.71837641408e-32
1.05087781149e-33
4.75734804351e-35
1.78076816545e-36
3.07463756658e-38
7.45593805651e-10
1.17071012555e-08
7.27741393411e-09
3.08535223685e-11
1.97468129021e-12
8.26250593142e-14
7.06538324722e-15
6.42870044334e-16
2.82176386807e-17
7.35087220274e-19
1.29593993435e-20
1.62758172734e-22
1.48739499128e-24
1.00664110399e-26
5.27681298397e-29
3.04119751542e-31
6.01575331597e-33
2.48639528444e-34
8.73156343798e-36
1.36624487865e-37
1.16965942174e-09
2.2647945862e-08
6.24376354903e-08
5.08393678943e-11
2.17643634569e-12
1.88525662293e-13
1.26879328757e-14
1.75613036642e-15
1.09554358895e-16
3.48053632464e-18
7.18191813341e-20
1.0337708255e-21
1.06758764097e-23
8.05415665877e-26
4.58180348199e-28
2.43506622246e-30
3.32993955507e-32
1.21311406878e-33
4.0049419523e-35
5.71680277493e-37
1.03771821718e-09
1.42675639512e-08
9.37213587631e-07
1.71237407556e-11
2.05935585323e-12
3.00604723974e-13
1.95005159824e-14
3.41895893408e-15
3.10259375917e-16
1.32680733042e-17
3.33353093614e-19
5.61178425539e-21
6.6277995749e-23
5.62120014299e-25
3.5111881208e-27
1.83886832044e-29
1.78077334276e-31
5.43791721283e-33
1.69337741625e-34
2.22808226516e-36
9.86716418814e-10
1.10378682432e-08
2.83696258824e-06
3.27419612505e-11
1.33733931889e-12
3.08293870482e-13
3.46011489225e-14
5.90611181385e-15
7.6803628944e-16
4.3378081016e-17
1.33659945156e-18
2.64723749134e-20
3.59696831936e-22
3.44803275521e-24
2.38447135656e-26
1.2850449176e-28
9.32278948179e-31
2.22198914571e-32
6.52399412126e-34
8.01211614017e-36
8.02560817662e-10
5.87880445802e-09
5.81123872884e-07
3.03225516742e-09
1.30879038908e-11
3.33585758069e-12
1.49728033755e-13
1.27102999977e-14
1.79757576058e-15
1.28755282422e-16
4.76358007576e-18
1.10344779676e-19
1.72584761667e-21
1.87437874095e-23
1.44345261777e-25
8.24459643207e-28
4.88045963921e-30
8.3471716577e-32
2.2786160616e-33
2.64472123633e-35
6.45952362905e-10
3.92890950021e-09
1.13582214406e-07
2.16155004621e-08
1.74874307625e-11
3.14920978124e-12
2.82859320916e-13
1.98571860461e-14
3.47088583616e-15
3.18154721422e-16
1.46914837223e-17
4.04356869396e-19
7.32180769664e-21
9.06549716091e-23
7.82250334542e-25
4.83634729125e-27
2.57630039611e-29
2.9766999189e-31
7.24213806794e-33
8.02138160855e-35
4.96069419571e-10
2.56299172809e-09
4.44456478071e-08
3.76861788844e-07
3.86365977552e-12
1.21654427285e-12
2.68662526556e-13
2.19684101712e-14
5.0627190288e-15
6.68503623595e-16
3.88627814475e-17
1.29642976203e-18
2.75405495381e-20
3.91585682032e-22
3.81174785034e-24
2.58979067645e-26
1.3507346015e-28
1.06349579509e-30
2.12235412057e-32
2.25021351295e-34
3.88982184841e-10
1.7985237601e-09
2.54756272642e-08
6.88203250695e-07
4.42877506081e-12
2.52410319109e-13
1.14441173632e-13
1.92837497073e-14
6.29231008576e-15
1.14847624488e-15
8.99333160797e-17
3.69699815641e-18
9.29679300053e-20
1.52636518464e-21
1.68370442018e-23
1.26935187856e-25
6.86224723061e-28
4.02000514867e-30
5.86956378328e-32
5.90053584961e-34
3.30366986182e-10
1.5222797456e-09
2.00108047346e-08
1.05012186936e-06
3.4692911101e-11
2.48102605521e-13
6.62322772202e-14
1.58991796895e-14
6.32274043998e-15
1.81955800008e-15
1.91107797469e-16
9.76570813252e-18
2.88331679691e-19
5.45726165222e-21
6.82392043355e-23
5.73437764337e-25
3.31865123742e-27
1.63997400498e-29
1.58703911286e-31
1.46489537486e-33
3.10708580137e-10
1.44359116526e-09
1.73988849011e-08
1.77008153806e-06
2.50428719566e-09
4.1957684139e-12
1.77921004806e-12
1.57123893054e-13
1.25552618889e-14
3.24885128124e-15
4.02768927061e-16
2.44378218408e-17
8.3970796572e-19
1.81648978856e-20
2.56731356279e-22
2.40687634082e-24
1.51582965605e-26
7.04949943491e-29
4.40289276179e-31
3.4916095115e-33
2.9999719698e-10
1.33388221324e-09
1.37686766014e-08
6.88476007259e-07
3.4515656039e-08
4.22912809413e-12
1.01247237437e-12
2.57309315018e-13
1.46140562654e-14
4.67962977161e-15
7.7174177553e-16
5.65861733685e-17
2.28402422956e-18
5.64745519373e-20
9.00959356539e-22
9.43251107362e-24
6.52262180112e-26
3.06761807824e-28
1.3197915909e-30
8.12032876553e-33
2.83765524656e-10
1.15356595109e-09
9.72304578777e-09
2.26947454756e-07
2.93927694091e-07
2.91368793402e-12
1.97955340882e-13
1.01657520452e-13
1.14423820206e-14
5.28814315424e-15
1.24300615761e-15
1.19363163663e-16
5.71645537528e-18
1.6320219439e-19
2.94921091618e-21
3.4575995149e-23
2.6417185744e-25
1.30936272725e-27
4.39970560041e-30
1.88651873716e-32
2.68056983596e-10
9.98280496491e-10
7.08408311598e-09
1.05824711797e-07
4.71522860845e-07
2.54894665606e-11
5.64593733924e-14
2.62324812791e-14
6.74223752015e-15
4.87362651781e-15
1.68909578633e-15
2.25479797035e-16
1.31411811131e-17
4.38083314044e-19
9.01273553828e-21
1.18708743198e-22
1.00706822809e-24
5.38231067831e-27
1.60751977506e-29
4.54871908049e-32
2.58591450958e-10
8.97364173485e-10
5.62150964151e-09
6.3633989604e-08
5.47349552592e-07
1.09904196229e-09
2.71536800828e-12
7.67749897207e-13
4.77259760322e-14
5.6274213259e-15
2.33174516369e-15
3.99955799454e-16
2.86183120606e-17
1.09877410095e-18
2.5786846382e-20
3.82467253114e-22
3.61631847875e-24
2.11139175927e-26
6.16488311737e-29
1.19833290739e-31
2.58515539403e-10
8.53266913379e-10
4.92438573124e-09
4.56469477967e-08
7.36412892985e-07
4.45603922381e-09
3.29345160665e-12
1.17682226507e-12
1.43496178946e-13
6.97522194254e-15
3.01462910764e-15
6.34250402284e-16
5.74932547771e-17
2.571273675e-18
6.90869857876e-20
1.15727611765e-21
1.22384955227e-23
7.87008934037e-26
2.37928840448e-28
3.58404896443e-31
2.68619930113e-10
8.56261936389e-10
4.65268561387e-09
3.61194382496e-08
6.24816255534e-07
3.66168309999e-08
4.19295570444e-12
5.35849920554e-13
1.14943370823e-13
6.18789605861e-15
3.36049830897e-15
9.17179496081e-16
1.02280729955e-16
5.58067406555e-18
1.73114717591e-19
3.28915199284e-21
3.9050653879e-23
2.78218989318e-25
8.98980967871e-28
1.20755720891e-30
2.86141636913e-10
8.83424127557e-10
4.48978232217e-09
2.95894473555e-08
4.67375574328e-07
7.46104121062e-08
3.05342746855e-11
8.02323360403e-14
3.74779964213e-14
3.93522339837e-15
3.05207019706e-15
1.1381722944e-15
1.65963884865e-16
1.12307234826e-17
4.07213117188e-19
8.8018495977e-21
1.1769077365e-22
9.32883517285e-25
3.27773848418e-27
4.37534567166e-30
3.08684962548e-10
9.23503384198e-10
4.36244561394e-09
2.50191995205e-08
3.58449531305e-07
3.15386879169e-07
2.15218051745e-09
3.4906079422e-14
7.6793045288e-15
3.18524358069e-15
2.33690653307e-15
1.26010894125e-15
2.61143041264e-16
2.10852519556e-17
9.02385646624e-19
2.22750967736e-20
3.36080513084e-22
2.97150719772e-24
1.1460215006e-26
1.62318208747e-29
3.36187813418e-10
9.78788989062e-10
4.2899634002e-09
2.17827499132e-08
2.64033600496e-07
3.72974322608e-07
6.53824736799e-10
1.81952471586e-12
4.66773178048e-13
2.58978560104e-14
2.32276925814e-15
1.45456067389e-15
3.87253988525e-16
3.76004161437e-17
1.89449114962e-18
5.35132656473e-20
9.11827316829e-22
9.00638199579e-24
3.8330327632e-26
5.96576955998e-29
3.70060082778e-10
1.05054632468e-09
4.25894480713e-09
1.93097774453e-08
1.92303249766e-07
3.75427246749e-07
3.28007279436e-09
2.55016189965e-12
8.44332371177e-13
8.81939373798e-14
2.78729221941e-15
1.70254463119e-15
5.30881937397e-16
6.52000766869e-17
3.77008417701e-18
1.22104384815e-19
2.35209362582e-21
2.59880576176e-23
1.22469418358e-25
2.13296838048e-28
4.13987227194e-10
1.14717400332e-09
4.2981087049e-09
1.76309819018e-08
1.47483998832e-07
3.5268404704e-07
1.82479113362e-08
1.04856988207e-11
6.26325355872e-13
7.8945389664e-14
2.7084835955e-15
1.731450146e-15
6.70477931063e-16
1.092228867e-16
7.09410844765e-18
2.64549482715e-19
5.76886118351e-21
7.13883671844e-23
3.73416464343e-25
7.34841446621e-28
4.73555109352e-10
1.28053330284e-09
4.43977727755e-09
1.67300131006e-08
1.21291306661e-07
3.1931311411e-07
4.54055457736e-08
4.46507972395e-10
2.43942091771e-13
4.63441838666e-14
3.36122846877e-15
1.64906508048e-15
7.62730369732e-16
1.59198212159e-16
1.25972770985e-17
5.44666859034e-19
1.34685726734e-20
1.86807962248e-22
1.08621303753e-24
2.42821184114e-27
5.5507882577e-10
1.45802578517e-09
4.67104876437e-09
1.63565690864e-08
1.04668042578e-07
2.90614476898e-07
6.7373504789e-08
1.23413978899e-09
1.66768405906e-12
2.13581009833e-13
6.55024390646e-15
1.48008853341e-15
8.18825155743e-16
2.05199247179e-16
2.11402643734e-17
1.07382802561e-18
2.99817568529e-20
4.6622114207e-22
3.01562971888e-24
7.68149763554e-27
6.64747140852e-10
1.67899912889e-09
4.95046894748e-09
1.62128344842e-08
9.13874887183e-08
2.63632851545e-07
1.91083860145e-07
2.66268744344e-10
4.3214708282e-12
5.48306654113e-13
1.91821169794e-14
1.91914422933e-15
9.52377696442e-16
2.74369486031e-16
3.34657670714e-17
2.01402616391e-18
6.36264851563e-20
1.11018433339e-21
7.99334513542e-24
2.32480906861e-26
8.13171720227e-10
1.9543558355e-09
5.30289512595e-09
1.63586207288e-08
8.17036626994e-08
2.3562639943e-07
2.92003464694e-07
1.1437296611e-09
7.41147430166e-12
1.15618682082e-12
5.37275121362e-14
2.3581564643e-15
1.00667500089e-15
3.57093157964e-16
4.99424157027e-17
3.57640283191e-18
1.28628169786e-19
2.52240594193e-21
2.0233545794e-23
6.73113183244e-26
1.01629285155e-09
2.29931695411e-09
5.7643666799e-09
1.68625551463e-08
7.53646769581e-08
2.09031309354e-07
2.91445284064e-07
4.89748957829e-09
3.75739612286e-11
1.67984567017e-12
7.59537883979e-14
2.16044527063e-15
1.05012614576e-15
4.22034446687e-16
7.11274468444e-17
6.01963272828e-18
2.48041167303e-19
5.47584742559e-21
4.89693619938e-23
1.8660844784e-25
1.29300296227e-09
2.72946591681e-09
6.3643403488e-09
1.77781262978e-08
7.18548528637e-08
1.87672925297e-07
2.66125661193e-07
1.24109175293e-08
1.87635103036e-09
1.98713329724e-12
9.87747469396e-14
2.97959841662e-15
1.03824581138e-15
4.53433908397e-16
1.00176775579e-16
9.63713368831e-18
4.57561397849e-19
1.13888669247e-20
1.13575539892e-22
4.96280048037e-25
1.66026203861e-09
3.25842071474e-09
7.12982696427e-09
1.91374475689e-08
7.03843100344e-08
1.70040668144e-07
2.35570050022e-07
2.26041045218e-08
2.90403139854e-09
6.01186459288e-12
3.15002881919e-13
5.26451632909e-15
1.16324199563e-15
5.07470960625e-16
1.38366331022e-16
1.46990988353e-17
8.08997638048e-19
2.27386483142e-20
2.52936937647e-22
1.26843036955e-24
2.13135841766e-09
3.90335409112e-09
8.09693676857e-09
2.09542137098e-08
7.01070100626e-08
1.54062786339e-07
2.02324029406e-07
3.51663266271e-08
1.40007383547e-10
1.13478108214e-11
6.75768562836e-13
1.28864202118e-14
1.46143602871e-15
5.36828408287e-16
1.7880761112e-16
2.12974703855e-17
1.36912954261e-18
4.35811284924e-20
5.41154918679e-22
3.1181394428e-24
2.72305188514e-09
4.69597273354e-09
9.32783951835e-09
2.32650137661e-08
7.05065748426e-08
1.39649488728e-07
1.72210221095e-07
4.7246997776e-08
1.8111522532e-10
2.21305921778e-11
1.33612308823e-12
2.8687771241e-14
1.53025475596e-15
6.09427010425e-16
2.06041050725e-16
2.96363051775e-17
2.2227646248e-18
8.01498640331e-20
1.11218942733e-21
7.37424060535e-24
3.46648286225e-09
5.6906162438e-09
1.09131158576e-08
2.61042254856e-08
7.12439405169e-08
1.26346736092e-07
1.47991809946e-07
5.28165903945e-08
5.15552683494e-10
7.52977311411e-11
2.553298794e-12
5.94369833104e-14
1.77723741422e-15
6.28330298562e-16
2.35768482395e-16
3.92051525784e-17
3.51813283672e-18
1.41640670649e-19
2.19813996824e-21
1.67942047911e-23
4.41595089665e-09
6.96852885563e-09
1.29597224627e-08
2.94643230666e-08
7.19997371026e-08
1.13946800288e-07
1.29713220324e-07
6.40828202054e-08
1.29321358959e-09
8.13154408076e-10
4.73403809787e-12
9.88359662663e-14
2.30908980636e-15
6.20918087657e-16
2.56936826912e-16
4.91666548406e-17
5.34871339073e-18
2.40881266161e-19
4.18632005674e-21
3.69009847687e-23
5.65380492116e-09
8.63704232164e-09
1.55658919156e-08
3.32670254667e-08
7.24444759698e-08
1.02372359064e-07
1.16389750135e-07
1.39920704268e-07
2.45897335256e-09
4.10081655224e-09
1.19216195368e-11
2.50771816792e-13
4.47444588181e-15
7.13156482765e-16
2.6175400735e-16
5.92814456817e-17
7.81345298942e-18
3.94661507879e-19
7.6948262843e-21
7.83565474559e-23
7.28922398947e-09
1.0815836929e-08
1.87816191289e-08
3.7338090972e-08
7.21982187531e-08
9.14086873329e-08
1.05927109699e-07
1.7166473079e-07
3.94650414637e-09
6.25240248826e-10
2.35489309721e-11
5.73486494978e-13
7.58853487413e-15
8.75203013252e-16
2.80141058123e-16
6.9521076313e-17
1.09765057991e-17
6.22934327576e-19
1.36553687499e-20
1.60889033333e-22
9.44285953714e-09
1.3601765661e-08
2.25696534229e-08
4.13827771755e-08
7.08401427832e-08
8.09247405639e-08
9.73003465827e-08
1.8136003209e-07
5.68069494783e-09
6.38897962234e-11
4.13305932814e-11
1.13764583751e-12
1.5185938469e-14
1.09097795078e-15
2.97303833018e-16
7.90585943456e-17
1.48454416914e-17
9.47031463011e-19
2.33910611025e-20
3.19413128142e-22
1.2210047878e-08
1.70191460887e-08
2.67680099034e-08
4.49518843822e-08
6.80197941502e-08
7.10703058612e-08
8.96456614699e-08
1.82930284768e-07
7.47168550506e-09
5.02837905846e-11
6.41701093033e-11
2.3565644943e-12
3.10930063899e-14
1.42124769428e-15
3.08862939403e-16
8.7709055912e-17
1.93700639343e-17
1.38773401378e-18
3.86902077274e-20
6.1325381793e-22
1.56052642434e-08
2.09615404029e-08
3.10350752644e-08
4.74286781165e-08
6.3543397091e-08
6.19475320718e-08
8.45116625453e-08
1.7964756363e-07
9.05129329183e-09
6.4450518173e-11
1.55387221019e-10
3.8703072172e-12
6.81562799618e-14
2.11982116893e-15
3.57596046451e-16
9.61988967157e-17
2.44829161543e-17
1.96407951271e-18
6.18726569315e-20
1.1395017956e-21
1.94880527367e-08
2.51154918811e-08
3.47781581143e-08
4.81249313906e-08
5.74891006139e-08
5.38354897776e-08
8.16990077809e-08
1.7287121224e-07
1.01615304811e-08
8.92408983679e-11
5.21403710939e-10
6.04049531286e-12
1.54402418042e-13
3.69433515249e-15
4.59593195987e-16
1.07255653541e-16
3.01867407096e-17
2.69327675469e-18
9.58225246227e-20
2.05074536729e-21
2.34526712809e-08
2.88603109996e-08
3.71572666195e-08
4.65184083208e-08
5.02794478221e-08
4.70996027176e-08
8.11252222342e-08
1.63011250636e-07
1.06875602375e-08
1.19219396221e-10
9.34780699179e-10
9.3960129115e-12
3.45558435077e-13
7.53530269628e-15
6.07625107182e-16
1.27676215165e-16
3.67336099284e-17
3.59378957048e-18
1.43957572289e-19
3.5757270093e-21
2.67174439782e-08
3.12616125441e-08
3.73252216834e-08
4.25476293803e-08
4.26422852718e-08
4.21250250825e-08
8.26993452465e-08
1.4988982438e-07
1.05968540859e-08
1.48528760823e-10
6.57244291125e-10
1.36663953904e-11
6.71113072071e-13
1.28846979462e-14
8.73899458802e-16
1.60389415378e-16
4.47350968175e-17
4.69300318925e-18
2.10201767609e-19
6.04038244747e-21
2.8237604433e-08
3.13863129068e-08
3.48896570382e-08
3.67856559311e-08
3.54854468683e-08
3.92928766279e-08
8.63724535068e-08
1.31626843328e-07
9.9364053863e-09
1.62872241914e-10
3.12803997776e-10
1.9898630936e-11
1.15558202707e-12
2.74760958124e-14
1.32153235762e-15
2.10124659207e-16
5.51213510819e-17
6.03812077708e-18
2.99064335978e-19
9.88683416555e-21
2.7244823535e-08
2.8904685895e-08
3.02924138678e-08
3.03379084303e-08
2.9760684125e-08
3.9124564671e-08
9.24697362122e-08
8.65751139033e-08
8.80611247573e-09
1.65061145055e-10
1.29915952935e-10
3.16413645118e-11
1.85001417198e-12
5.54816368003e-14
2.16671710827e-15
2.82146105498e-16
6.88866965625e-17
7.70385298723e-18
4.15833715774e-19
1.56894553205e-20
2.38891459963e-08
2.44678970904e-08
2.47032165125e-08
2.44784511733e-08
2.62541474471e-08
4.19958815158e-08
1.00533388737e-07
3.93664692778e-08
7.26966170399e-09
1.56369886751e-10
5.74921623612e-11
5.49125474478e-11
2.82961616012e-12
1.05727606427e-13
3.81372226161e-15
3.84816813359e-16
8.66317808953e-17
9.79169218968e-18
5.66790073263e-19
2.41693543405e-20
1.92889338823e-08
1.94201054465e-08
1.95129515639e-08
2.0282420389e-08
2.55271670632e-08
4.80892850325e-08
1.08811969807e-07
3.73166451362e-08
5.63607368233e-09
1.38491397607e-10
3.08730951511e-11
9.50754684878e-11
4.21794099921e-12
1.97830934367e-13
5.21551147016e-15
5.00898182519e-16
1.07408351964e-16
1.24061856328e-17
7.59233857687e-19
3.62212655916e-20
1.48817959062e-08
1.51234590374e-08
1.58437697226e-08
1.84753703089e-08
2.79009918516e-08
5.71672195228e-08
1.12387563968e-07
3.25556629304e-08
4.10555074378e-09
1.14542394907e-10
2.0299928821e-11
1.45889534303e-10
6.13419559005e-12
3.45277431281e-13
1.03189599169e-14
7.31735212009e-16
1.2940764322e-16
1.56617928548e-17
1.00155867706e-18
5.29775389008e-20
1.17782126929e-08
1.25193390187e-08
1.4388513172e-08
1.94684363492e-08
3.34854639767e-08
6.82637597754e-08
1.02416240447e-07
2.52522849944e-08
2.79967917932e-09
8.87093503391e-11
1.55280074892e-11
1.92273386116e-10
8.49838713489e-12
5.78221682043e-13
1.97380935483e-14
1.16503686708e-15
1.59065929696e-16
1.96946562681e-17
1.30372966828e-18
7.59752922844e-20
1.0596965673e-08
1.2109901969e-08
1.55102920518e-08
2.34756071388e-08
4.21655402462e-08
7.88052292483e-08
7.07182116026e-08
1.75851617426e-08
1.77687839585e-09
6.44795784071e-11
1.29923886546e-11
2.17894100484e-10
1.11749913638e-11
9.26868752852e-13
3.68627651539e-14
1.85801214322e-15
2.09849053943e-16
2.47315238424e-17
1.67978183538e-18
1.07525184009e-19
1.16433193722e-08
1.41788357463e-08
1.94925955991e-08
3.07719110476e-08
5.36075022554e-08
8.36717256262e-08
3.18673992025e-08
1.09639735592e-08
1.04667673436e-09
4.42719907467e-11
1.22523436922e-11
2.20866382925e-10
1.39368045627e-11
1.42439551383e-12
6.64373321733e-14
3.10168273959e-15
2.77616916419e-16
3.10280340249e-17
2.15132316766e-18
1.51424889897e-19
1.51723221128e-08
1.90292638265e-08
2.66629920489e-08
4.13009788217e-08
6.49547359856e-08
6.8735807673e-08
2.58871832577e-08
6.09405198642e-09
5.70417082379e-10
2.89630127777e-11
1.31147629217e-11
2.08998024144e-10
1.66790510582e-11
2.04266556244e-12
1.13214321137e-13
5.17898753976e-15
3.72431549058e-16
3.88568946828e-17
2.75248798168e-18
2.1422357903e-19
2.16659616789e-08
2.71434682995e-08
3.71277213314e-08
5.30790087123e-08
6.60372697027e-08
2.84744395789e-08
1.54980612643e-08
3.02657058484e-09
2.87944371689e-10
1.82714088639e-11
1.56357977828e-11
1.89210973085e-10
1.92373238796e-11
2.71044418212e-12
1.92173003e-13
8.70102516101e-15
5.13739690652e-16
4.86133294213e-17
3.53888098837e-18
3.07326249934e-19
3.15315323729e-08
3.81894147619e-08
4.81329965335e-08
5.62300966032e-08
3.24167601919e-08
2.21955144169e-08
7.50722327966e-09
1.33684191356e-09
1.3491195803e-10
1.12138156842e-11
1.93384844504e-11
1.65657161669e-10
2.13186910636e-11
3.34389520139e-12
3.05575118894e-13
1.27955459348e-14
7.276531243e-16
6.06710395672e-17
4.59274277871e-18
4.52614413723e-19
4.1171510167e-08
4.51217506974e-08
4.56369723977e-08
2.55892152335e-08
2.27324130538e-08
1.09524677115e-08
3.12164799114e-09
5.47761720081e-10
6.22443495805e-11
7.00717930681e-12
2.15867752919e-11
1.44173384207e-10
2.38847520808e-11
4.05219807036e-12
4.67932927818e-13
2.15064752568e-14
1.02781938537e-15
7.40009934627e-17
5.97056096822e-18
6.89553083411e-19
2.54620168315e-44
9.45777327494e-46
1.33315206738e-43
8.59237265158e-43
8.30062760982e-43
7.2081019624e-44
4.34805697624e-42
3.44050091345e-43
1.99129417623e-41
1.33429542187e-42
8.51688542925e-41
4.82212719798e-42
3.51350573648e-40
1.68951113083e-41
1.40700550292e-39
5.78117115654e-41
5.44909086496e-39
1.92354645223e-40
2.02560955193e-38
6.16584183628e-40
7.15599014933e-38
1.9559963361e-39
2.37826464044e-37
2.03862379814e-37
7.38451477225e-37
1.74558088307e-38
2.1392012425e-36
4.99905709551e-38
5.80551465231e-36
1.35061667255e-37
1.48797397441e-35
3.46948776601e-37
3.63884507405e-35
8.5747047225e-37
8.58507395675e-35
2.07305630354e-36
1.97821740301e-34
5.03461149127e-36
4.53246216075e-34
1.28836220246e-35
1.06749732611e-33
3.72767333006e-35
2.73207988391e-33
1.29308598192e-34
8.06522938446e-33
5.31189814053e-34
2.78815243019e-32
2.40636259286e-33
1.07781750062e-31
1.12434567602e-32
4.36799077214e-31
5.21579499773e-32
1.77267951077e-30
2.35412613422e-31
7.02647354323e-30
1.02383086432e-30
2.68689974485e-29
4.26897856579e-30
9.85480921561e-29
1.70176797217e-29
3.45826274692e-28
6.47654698017e-29
1.1601528084e-27
2.35192418276e-28
3.72059498003e-27
8.15010259569e-28
1.14156065303e-26
2.6968699263e-27
3.35638443304e-26
8.53298367902e-27
9.47268676628e-26
2.58568169994e-26
2.56897214345e-25
7.51295784148e-26
6.69846294723e-25
2.09485469754e-25
1.68084429887e-24
5.61042822189e-25
4.065250864e-24
1.44509934662e-24
9.4903479217e-24
3.58441024356e-24
2.13991009773e-23
8.56786318081e-24
4.66046883706e-23
1.97382723724e-23
9.80341983934e-23
4.38197085672e-23
1.99216295311e-22
9.37336456668e-23
3.91120217174e-22
1.93144203039e-22
7.4161773195e-22
3.83164130971e-22
1.35722279872e-21
7.31281458033e-22
2.3961055937e-21
1.34201301964e-21
4.08158164561e-21
2.36879551158e-21
6.71622980799e-21
4.02718568799e-21
1.07027736212e-20
6.61370577117e-21
1.65846486237e-20
1.05401958965e-20
2.5143572198e-20
1.64145668207e-20
3.76018745816e-20
2.52058047849e-20
5.59784109531e-20
3.85163529381e-20
8.38474246247e-20
5.92216453122e-20
1.27404786161e-19
9.22344028169e-20
1.9836470722e-19
1.461508007e-19
3.43980152963e-19
2.72932721772e-19
)
;

boundaryField
{
    inletfuel
    {
        type            calculated;
        value           uniform 0;
    }
    inletair
    {
        type            calculated;