/*--------------------------------*- C++ -*----------------------------------*\
  =========                 |
  \\      /  F ield         | OpenFOAM: The Open Source CFD Toolbox
   \\    /   O peration     | Website:  https://openfoam.org
    \\  /    A nd           | Version:  dev
     \\/     M anipulation  |
\*---------------------------------------------------------------------------*/
FoamFile
{
    version     2.0;
    format      ascii;
    class       volScalarField;
    location    "0.3";
    object      edc::YStar_CH2;
}
// * * * * * * * * * * * * * * * * * * * * * * * * * * * * * * * * * * * * * //

dimensions      [0 0 0 0 0 0 0];

internalField   nonuniform List<scalar> 
1629
(
1.72666937653e-27
1.56306591753e-27
1.17685189851e-27
2.47499350283e-25
3.11024162196e-25
4.88345348312e-25
1.95845538327e-23
3.60503815737e-23
1.15742542607e-22
1.04387107312e-21
2.85338763118e-21
1.94573684598e-20
6.42891772753e-20
2.46419552063e-19
1.67017554469e-18
3.90424959161e-18
1.85867050191e-17
9.98943926203e-17
1.10785239833e-16
7.65298324444e-17
4.54409451851e-16
4.14272112542e-16
5.15164963553e-15
4.92383023855e-13
1.69771682569e-15
3.01625460514e-14
8.65653397151e-13
1.09943584389e-14
9.10107596498e-14
9.40403812477e-13
4.17331305655e-14
1.73064601334e-13
8.381360735e-13
1.01021141633e-13
2.58556738755e-13
7.82418458258e-13
1.85833387184e-13
3.59510175354e-13
9.03104846999e-13
2.76073153521e-13
4.51830716804e-13
9.65892551031e-13
3.59950575407e-13
5.29577765846e-13
1.03209931808e-12
4.13361987301e-13
5.6391868463e-13
9.91039935067e-13
4.22213806696e-13
5.43467002243e-13
8.68530341176e-13
3.89225879515e-13
4.78006482983e-13
7.04557216151e-13
3.32051946474e-13
3.94193401451e-13
5.46691266649e-13
2.72180842198e-13
3.17933224651e-13
4.28851440065e-13
2.24723072385e-13
2.63199865164e-13
3.59459214242e-13
1.92211084156e-13
2.27584474619e-13
3.17465898444e-13
1.68482261712e-13
2.00090457543e-13
2.79434328178e-13
1.48090400987e-13
1.74727939392e-13
2.40236598907e-13
1.29669168392e-13
1.51472725657e-13
2.04563634406e-13
1.14483317292e-13
1.32770810243e-13
1.77371794099e-13
1.04197066014e-13
1.20413621471e-13
1.6042116386e-13
9.90223265801e-14
1.14240344831e-13
1.517879808e-13
9.8134718444e-14
1.1273331271e-13
1.48388241551e-13
9.99569720358e-14
1.13803089631e-13
1.47157977698e-13
1.02744937382e-13
1.15557027078e-13
1.46241595782e-13
1.05371658513e-13
1.17198642731e-13
1.45539730892e-13
1.07892445349e-13
1.19139431729e-13
1.46280324962e-13
1.1209160111e-13
1.23516294784e-13
1.5137567787e-13
1.20941822368e-13
1.33312307866e-13
1.64267582051e-13
1.39033130517e-13
1.53868272948e-13
1.91291820486e-13
1.74843839997e-13
1.94145246338e-13
2.43308519264e-13
2.43570140949e-13
2.71185135734e-13
3.41459653153e-13
3.75174204534e-13
4.17212046402e-13
5.24559868813e-13
6.27304454112e-13
6.95495137348e-13
8.69332214563e-13
1.12035643139e-12
1.23757056829e-12
1.53234874619e-12
2.12539069144e-12
2.3362673855e-12
2.86433271008e-12
4.29335216949e-12
4.69668676955e-12
5.70311207736e-12
9.27490433156e-12
1.00979900021e-11
1.21400969545e-11
2.14045489097e-11
2.31883913633e-11
2.75924746128e-11
5.23227234848e-11
5.63951607146e-11
6.63938901381e-11
1.33231341042e-10
1.42842414287e-10
1.66283429674e-10
3.44931449853e-10
3.67744199516e-10
4.22924546372e-10
8.82315909967e-10
9.3495434734e-10
1.06096314062e-09
2.16407694527e-09
2.27811693482e-09
2.54796246309e-09
4.94862203906e-09
5.17375738523e-09
5.70012778991e-09
1.03088900887e-08
1.07054752603e-08
1.16223380572e-08
1.92847252468e-08
1.9904636695e-08
2.13242609466e-08
3.23885977974e-08
3.32639508684e-08
3.52552124275e-08
4.97161263135e-08
5.08800601816e-08
5.35177005588e-08
7.20094417616e-08
7.35338045675e-08
7.69830493571e-08
1.01788096816e-07
1.03811204412e-07
1.08382079805e-07
1.43793743762e-07
1.46525442637e-07
1.52692152878e-07
2.04970356747e-07
2.08693671067e-07
2.17081222296e-07
2.93010124492e-07
2.9800375204e-07
3.09216817295e-07
4.12115771546e-07
4.18443203317e-07
4.32566161616e-07
5.5334842584e-07
5.60351683404e-07
5.75788470032e-07
6.69206969591e-07
6.74462549592e-07
6.85677278871e-07
7.38643640475e-20
6.70732997087e-18
8.02917917573e-18
1.84610734538e-14
2.07541715149e-11
1.02995882152e-11
4.44623520103e-12
2.14140282342e-12
1.75912637243e-12
2.32137654917e-12
2.24967621281e-12
2.2711591454e-12
1.93751876765e-12
1.52376113715e-12
1.11981469847e-12
8.09775161707e-13
6.22786307876e-13
5.36811750494e-13
4.85525025177e-13
4.22942853797e-13
3.54541988215e-13
2.95668941206e-13
2.54063413696e-13
2.2964623436e-13
2.16432742329e-13
2.08438361826e-13
2.02293953458e-13
1.96486131915e-13
1.92074651794e-13
1.91868777347e-13
1.99357172132e-13
2.18811906223e-13
2.58192503538e-13
3.32386127251e-13
4.68499435505e-13
7.18631639273e-13
1.18040332485e-12
2.05484048833e-12
3.7925870043e-12
7.45590031232e-12
1.56664372e-11
3.51299252079e-11
8.33399114946e-11
2.05554989922e-10
5.14015004443e-10
1.26538632896e-09
2.97731978593e-09
6.52132976827e-09
1.30266747538e-08
2.34656830729e-08
3.82282550865e-08
5.74336201263e-08
8.20908879367e-08
1.15139830945e-07
1.61787757175e-07
2.29412424793e-07
3.25611767222e-07
4.53013976255e-07
5.97694722128e-07
7.00675810664e-07
6.46988296369e-31
1.48957864617e-29
7.89418012862e-29
1.37643203006e-28
7.94199304136e-29
1.94131487464e-29
2.45969421284e-30
1.92674655931e-31
1.25402634804e-32
1.01710380611e-33
1.05658192952e-34
1.07402999122e-35
9.48606863959e-37
7.15591556159e-38
4.64308005131e-39
2.62620910967e-40
1.31988851845e-41
6.03358469519e-43
2.51499520491e-44
3.23859927646e-46
3.08936909722e-28
4.91358053527e-27
3.3079696572e-26
6.44675464185e-26
3.10691182259e-26
5.71252033185e-27
5.20853355146e-28
2.75678955091e-29
9.85164408378e-31
2.99737340882e-32
1.33936200466e-33
1.00058582253e-34
7.95369460314e-36
5.65499144418e-37
3.5442425102e-38
1.98461754296e-39
1.0143781885e-40
4.85218056474e-42
2.09433312842e-43
2.84497563095e-45
1.59563168893e-25
6.65391484932e-25
5.16627044129e-24
1.06237179079e-23
4.17410610281e-24
5.88671207192e-25
4.10472848414e-26
1.69466953918e-27
4.69555003273e-29
9.42769903315e-31
1.82206918554e-32
6.88048559434e-34
4.57520299535e-35
3.11591039743e-36
1.93195513565e-37
1.0929792259e-38
5.74789758868e-40
2.88373172624e-41
1.2899238569e-42
1.77056877845e-44
1.56829371015e-20
1.41844273916e-22
7.29242983852e-22
1.14688288793e-21
3.52935114473e-22
4.00149005432e-23
2.29369752184e-24
8.08691240858e-26
1.93577856672e-27
3.27958167903e-29
4.28893551497e-31
6.76589403678e-33
2.77667834258e-34
1.76733472228e-35
1.09902196039e-36
6.33004236528e-38
3.41451148607e-39
1.76761115797e-40
8.20019990562e-42
1.38278005704e-43
4.93325552539e-18
2.22686918688e-19
2.11054171823e-19
1.51713833861e-19
3.12260111278e-20
2.68734818729e-21
1.24002152946e-22
3.69870659921e-24
7.6299615919e-26
1.13359086137e-27
1.25598208448e-29
1.19447223906e-31
2.07609345103e-33
1.04526763703e-34
6.50902314847e-36
3.84421134614e-37
2.12796803791e-38
1.12911507063e-39
5.37622468396e-41
1.15356215481e-42
1.87941992509e-16
3.01328064496e-15
1.55176795498e-16
2.29463725809e-17
2.59485527169e-18
1.62004578559e-19
5.96648982077e-21
1.4642145225e-22
2.58266702221e-24
3.39388775215e-26
3.3910102343e-28
2.67814716208e-30
2.32784810731e-32
6.57013503841e-34
3.9175412367e-35
2.37406528069e-36
1.34394580329e-37
7.23841125927e-39
3.45918202321e-40
8.15209892445e-42
1.02654059556e-12
5.64036592707e-12
1.32973475055e-13
4.22167620156e-15
1.59510740481e-16
7.16440152565e-18
2.11063565259e-19
4.299407701e-21
6.60732893342e-23
7.9015952183e-25
7.40402328721e-27
5.4789320503e-29
3.56893101766e-31
4.8445075367e-33
2.42159364969e-34
1.48751845808e-35
8.53484906123e-37
4.6039356807e-38
2.1556790374e-39
5.12460468426e-41
3.05846178448e-10
4.74026748818e-15
2.96321620268e-12
3.5384955842e-14
1.1120023888e-15
8.93668668517e-17
3.42586121404e-18
6.95246980529e-20
1.0446666553e-21
1.24392728113e-23
1.17655358327e-25
8.8080490135e-28
5.41284867891e-30
4.45723097457e-32
1.56791252333e-33
9.45282338016e-35
5.41899973793e-36
2.88418983751e-37
1.29759056119e-38
2.94451961429e-40
7.14445849344e-11
1.26227482788e-09
2.57886629753e-12
3.88741358369e-14
1.74192395365e-15
1.42108577974e-16
1.18318637104e-17
4.01713015358e-19
8.10285841061e-21
1.16592404456e-22
1.26117958852e-24
1.043043952e-26
6.78357348228e-29
4.58369745743e-31
1.07401454107e-32
6.05456219566e-34
3.4091426957e-35
1.76557597952e-36
7.52820419208e-38
1.57754171638e-39
1.48364749278e-11
1.07426176699e-10
6.89865114622e-13
1.21431555239e-14
1.47890568131e-15
1.57568544993e-16
2.25684634375e-17
1.32080378953e-18
3.88869049549e-20
7.30114465272e-22
9.65387304376e-24
9.30622695408e-26
6.79406826704e-28
4.5099310909e-30
7.6433266676e-32
3.84947173425e-33
2.0957327615e-34
1.04504981227e-35
4.18932585647e-37
7.98070186651e-39
3.94116104334e-12
9.96108529898e-12
2.03165432559e-12
1.23417957871e-14
1.72555177666e-15
1.90482747171e-16
3.83545705405e-17
3.57613021965e-18
1.48690144987e-19
3.61096913801e-21
5.84583271957e-23
6.68063425167e-25
5.59512741771e-27
3.94958870877e-29
5.42191480191e-31
2.37477220325e-32
1.23620214258e-33
5.90136786804e-35
2.21810622687e-36
3.82337834353e-38
6.11024568252e-12
1.81555980444e-10
1.52688578179e-14
4.60988082035e-13
2.05201350298e-14
8.82652645888e-16
1.07572140119e-16
1.18857833292e-17
5.79504391068e-19
1.64468202225e-20
3.10666686195e-22
4.1428675126e-24
3.94298209033e-26
3.04081242836e-28
3.6734915923e-30
1.3845173831e-31
6.85214379067e-33
3.13001009526e-34
1.10535935707e-35
1.72743273852e-37
1.1375488354e-11
2.78179510729e-10
6.24793768994e-15
4.86505036198e-13
1.43468493279e-14
1.60450767017e-15
1.44192525838e-16
2.68833523993e-17
1.87029099577e-18
6.48389557321e-20
1.44095763698e-21
2.22258013575e-23
2.42013954221e-25
2.06018068867e-27
2.30177240513e-29
7.42758036531e-31
3.4906635235e-32
1.53309495607e-33
5.12000048426e-35
7.30446571544e-37
8.25302109907e-12
1.18498680868e-10
1.51340044834e-05
1.37154821901e-14
6.21113494693e-15
1.78359277956e-15
1.49888180226e-16
4.25858874658e-17
4.57108329077e-18
2.11670656227e-19
5.72233740036e-21
1.02740313938e-22
1.3007350832e-24
1.2305148576e-26
1.30800874445e-28
3.58070210787e-30
1.59926118907e-31
6.81975063515e-33
2.17647295809e-34
2.86511799827e-36
7.73155236729e-12
8.11832922711e-11
1.97537770017e-05
1.08585670235e-14
1.73443408021e-15
8.69092824453e-16
1.52666206793e-16
5.54370586958e-17
9.69459080732e-18
6.04037968033e-19
1.99974202763e-20
4.23136763195e-22
6.41146719665e-24
6.52884066359e-26
6.72170348013e-28
1.53085696821e-29
6.47905079126e-31
2.71827253255e-32
8.40190121437e-34
1.03418156111e-35
5.35636646807e-12
3.44899405664e-11
1.04086171915e-07
3.24832084029e-17
5.47385648813e-14
2.4235698895e-14
8.80021622258e-16
1.01254533554e-16
2.07761342456e-17
1.63859173415e-18
6.4308938841e-20
1.57935346643e-21
2.86652844593e-23
3.11739255312e-25
3.17464399739e-27
5.86699253453e-29
2.31015228482e-30
9.65260267039e-32
2.93035906634e-33
3.4209217289e-35
3.64628488967e-12
1.99263137655e-11
4.61217976163e-09
4.84827682603e-17
4.03110869938e-14
1.56183185209e-14
1.50289496446e-15
1.23822618516e-16
3.50373188853e-17
3.74992043864e-18
1.82628251933e-19
5.2854986479e-21
1.00548379153e-22
1.34882788329e-24
1.40308770166e-26
2.09069428677e-28
7.33026313581e-30
3.06593045079e-31
9.25234570146e-33
1.03852302543e-34
2.33439563633e-12
1.0458202597e-11
7.4365476607e-10
4.56305302103e-06
7.24941726787e-16
1.68643097315e-15
7.87946095372e-16
8.92570650386e-17
3.99868634605e-17
6.83382149493e-18
4.39913148518e-19
1.54892521236e-20
3.45828468535e-22
5.32724551449e-24
5.82859190414e-26
7.25478800124e-28
2.12258916126e-29
8.81633398702e-31
2.66634580982e-32
2.91274993268e-34
1.54399695946e-12
6.02183703434e-12
2.32710547179e-10
1.27580502234e-05
0
2.54318828809e-16
1.20501159964e-16
4.08540711586e-17
3.40826959145e-17
9.67503106192e-18
8.97261952706e-19
3.98151078011e-20
1.06158419054e-21
1.95539719236e-23
2.26307162076e-25
2.52762666919e-27
5.81310677996e-29
2.3346846007e-30
7.09750898029e-32
7.62330820214e-34
1.18471542033e-12
4.7071767537e-12
1.35771312592e-10
1.53218766582e-05
8.98873716514e-15
8.86451205168e-16
8.1966629756e-18
9.37170938863e-18
1.856104697e-17
1.15330056893e-17
1.6063484393e-18
9.21369744611e-20
2.94910853213e-21
6.45245072724e-23
8.17352423102e-25
8.8569800401e-27
1.5683051684e-28
5.80355729791e-30
1.76806145126e-31
1.88253174264e-33
1.08889697419e-12
4.44929121701e-12
9.80105142918e-11
6.09528171559e-06
1.6682649133e-19
1.24576425772e-14
6.68062820755e-15
4.26593200096e-16
3.49033013769e-17
1.69051308531e-17
2.91977462885e-18
2.02840381569e-19
7.64061796697e-21
1.78784710617e-22
2.75287988854e-24
3.06894305293e-26
4.31592556215e-28
1.37971233845e-29
4.16963069982e-31
4.42942259788e-33
1.01010002399e-12
3.8531294387e-12
6.27999831861e-11
6.48357980462e-07
1.55713380355e-14
1.27288980604e-14
2.86507752135e-15
5.10688288746e-16
2.99872695287e-17
1.82463896092e-17
4.74209760671e-18
4.14017850727e-19
1.8447320401e-20
4.95025557203e-22
8.65752778121e-24
1.03118744944e-25
1.23292796304e-27
3.19268472346e-29
9.38753922011e-31
9.99812691715e-33
8.54273576591e-13
2.84988283549e-12
3.43430637022e-11
7.75249531321e-08
3.5444816403e-06
0
9.13350516224e-16
5.87520282933e-17
1.04873914915e-17
1.40781184056e-17
5.99281439598e-18
7.49356047647e-19
4.07058653454e-20
1.27494428243e-21
2.57093537795e-23
3.30984626318e-25
3.64407708976e-27
7.33118407473e-29
2.03019114477e-30
2.17359372534e-32
6.87858582051e-13
2.04800141154e-12
2.01123734331e-11
1.62699807306e-08
8.29393984619e-06
0
7.83584052606e-16
1.46526456367e-18
7.78576764738e-19
8.54135652875e-18
5.79075519319e-18
1.16613554157e-18
8.12515867051e-20
3.02535459315e-21
7.13432772211e-23
1.00492170472e-24
1.09420677285e-26
1.70902001038e-28
4.24575699253e-30
4.56351056752e-32
5.56553064105e-13
1.54880964035e-12
1.37237779509e-11
5.45302475782e-09
1.06213124015e-05
2.24059331324e-14
5.37600772228e-15
1.34004359589e-15
8.55385876605e-18
6.7977116131e-18
5.91367966595e-18
1.66705156685e-18
1.50932430114e-19
6.664998783e-21
1.82105161199e-22
2.87580400843e-24
3.26296207067e-26
4.13105955395e-28
8.66972811472e-30
9.28041168162e-32
4.71064817326e-13
1.28832259859e-12
1.10858386293e-11
2.46028580206e-09
8.15435176316e-06
8.70846213507e-19
9.03610509157e-15
2.74613742135e-15
1.91767829396e-16
7.45417364151e-18
5.70497212514e-18
2.19693012538e-18
2.61282569044e-19
1.37073412804e-20
4.14893985552e-22
7.74821646709e-24
9.47862662019e-26
1.04427882414e-27
1.75158565196e-29
1.83422215499e-31
4.2286265354e-13
1.17227399167e-12
1.01387192617e-11
1.36118866927e-09
3.23616290412e-06
7.67044747694e-16
0
2.33722156969e-15
9.04144281715e-17
5.55626151309e-18
5.02469660724e-18
2.49312002521e-18
4.04093768799e-19
2.61886759066e-20
9.19721747866e-22
1.96528238708e-23
2.64815377498e-25
2.73691669152e-27
3.55967808912e-29
3.53609785109e-31
3.9297290455e-13
1.10579499238e-12
9.50352830487e-12
8.41058323272e-10
1.29937706768e-06
5.4477499224e-09
0
7.59889479016e-16
5.0247745573e-18
4.62917109772e-19
3.48147486344e-18
2.3510378289e-18
5.55203634555e-19
4.61568746287e-20
1.91937036846e-21
4.71592991126e-23
7.0678830249e-25
7.29647367959e-27
7.41545148366e-29
6.68230351613e-31
3.69354182693e-13
1.05150556298e-12
8.94499122224e-12
5.76834458977e-10
6.07984677537e-07
4.73965979634e-06
4.27459930476e-12
5.01486392154e-16
0
1.16543359436e-17
2.14125232938e-18
1.8824107556e-18
7.01261431606e-19
7.47982169862e-20
3.75294825286e-21
1.072144504e-22
1.79668459362e-24
1.93937024567e-26
1.61085805275e-28
1.24884636122e-30
3.48858636304e-13
1.01640240562e-12
8.62632446671e-12
4.3496807814e-10
3.07009654275e-07
6.97141977772e-06
4.05440186693e-16
2.57408614768e-15
4.60596108443e-16
1.19444523272e-18
1.10284652108e-18
1.49560422851e-18
8.14298403077e-19
1.13446536768e-19
6.90403979888e-21
2.30391185744e-22
4.34646014431e-24
5.05660049103e-26
3.67661301806e-28
2.34428901559e-30
3.32238467746e-13
1.00685747967e-12
8.53158409687e-12
3.46035243945e-10
1.588437396e-07
7.96159798275e-06
6.47254830085e-19
5.18307490606e-15
1.36854066965e-15
3.89061523647e-17
1.54877044088e-18
1.38412537735e-18
8.45046536878e-19
1.65631898505e-19
1.19907303656e-20
4.6324845275e-22
9.9982407854e-24
1.27817485495e-25
8.74928961987e-28
4.51962206438e-30
3.23554080841e-13
1.03865510523e-12
8.78166650774e-12
2.95613174906e-10
9.13795969682e-08
6.3201927922e-06
6.83550185452e-17
0
1.86779604557e-15
3.87532892991e-17
6.8838476056e-19
1.1624092077e-18
8.14550192493e-19
2.30813824343e-19
1.96462351198e-20
8.70724366908e-22
2.18647231681e-23
3.10851667466e-25
2.12962535353e-27
9.16453304638e-30
3.28091614294e-13
1.1314458891e-12
9.54304045337e-12
2.76508830681e-10
6.09561747515e-08
4.50454060561e-06
1.20001353523e-15
6.05660410535e-13
2.91550617234e-15
3.20362646948e-18
1.00325266157e-17
1.32282476781e-18
7.53009109891e-19
2.73843168061e-19
3.02177580174e-20
1.57838930374e-21
4.54918655243e-23
7.24497804293e-25
5.19023530258e-27
1.98274719054e-29
3.51822240043e-13
1.30264290005e-12
1.08648859194e-11
2.78381674945e-10
4.55453011941e-08
3.2303444661e-06
4.47344793011e-13
7.33925856033e-11
1.59763536142e-15
1.22986900716e-16
5.61469883727e-19
1.70854454139e-18
5.69079593141e-19
2.92796846626e-19
4.35646947311e-20
2.73496742123e-21
9.02593994581e-23
1.61567734055e-24
1.24513759852e-26
4.55675738126e-29
4.0036752613e-13
1.56645822989e-12
1.27123804425e-11
2.91456459164e-10
3.53790821525e-08
2.21298935549e-06
2.22144154673e-06
0
1.00977613025e-14
6.14953194903e-16
3.57559546293e-18
2.51163117832e-18
4.83746517863e-19
3.17319656846e-19
5.89179596956e-20
4.49787399292e-21
1.70971637388e-22
3.44443819224e-24
2.90631963625e-26
1.0895311418e-28
4.88744366604e-13
1.97447178008e-12
1.54383589783e-11
3.20610444354e-10
2.92561851656e-08
1.5528997942e-06
5.09377496584e-06
1.01411387953e-16
1.66890258259e-14
2.3568766312e-15
1.98781398513e-17
5.97136618697e-18
4.59808786415e-19
3.31388804568e-19
7.49411687545e-20
7.01991445452e-21
3.08649136377e-22
7.01827424012e-24
6.55398904489e-26
2.64179494484e-28
6.44311912662e-13
2.62233344819e-12
1.96918359832e-11
3.74713221591e-10
2.62650479417e-08
1.15596528286e-06
5.70990678206e-06
1.14140636508e-15
5.86612371625e-14
3.73579080809e-15
4.10721051922e-17
8.03130533446e-18
5.31475187119e-19
3.05511925316e-19
9.07520004279e-20
1.03877904466e-20
5.31099735247e-22
1.3684725238e-23
1.42344243782e-25
6.36260238322e-28
9.16676863365e-13
3.6784539575e-12
2.65228007123e-11
4.67692839829e-10
2.57485390388e-08
9.30968074199e-07
5.6709429694e-06
9.14171296859e-17
1.77791698514e-11
4.15744536132e-15
5.07602862854e-17
7.30337624467e-18
6.58129237147e-19
2.4252601718e-19
1.08833374211e-19
1.46020345283e-20
8.6877869662e-22
2.55958744289e-23
2.97634549961e-25
1.50233699989e-27
1.39464325882e-12
5.44263301229e-12
3.77329971534e-11
6.2142781683e-10
2.72014211048e-08
7.98643996836e-07
5.31131568764e-06
7.64748710814e-16
2.78404971622e-10
2.40555379427e-14
3.66956056628e-16
3.10441082487e-18
6.22556899731e-19
2.36929654244e-19
1.27178099207e-19
1.95168320716e-20
1.36230449314e-21
4.60103197826e-23
5.99423010311e-25
3.45230053164e-27
2.24823445407e-12
8.48188678241e-12
5.66393328071e-11
8.71161261563e-10
3.02479186489e-08
7.0874640676e-07
4.761600675e-06
1.64181968066e-15
3.13844167751e-13
5.93268571557e-14
1.28733050462e-15
9.39458941129e-18
1.54205954827e-18
2.26395240635e-19
1.34652227408e-19
2.47420447496e-20
2.05726252107e-21
7.95223488007e-23
1.162679169e-24
7.68772122918e-27
3.82841632771e-12
1.39512590873e-11
8.9863917446e-11
1.28011373771e-09
3.49204772079e-08
6.45070192576e-07
4.15788726435e-06
8.78356504745e-15
3.32896225301e-16
1.35205025654e-13
3.85055509916e-15
2.26993398092e-17
1.66929128442e-18
2.70621541066e-19
1.19058024484e-19
3.02444580808e-20
2.9907869954e-21
1.32184547761e-22
2.17180431859e-24
1.65506134353e-26
6.91051851233e-12
2.43295045483e-11
1.51106384275e-10
1.95922063963e-09
4.15344094771e-08
6.01561710948e-07
3.61310828553e-06
1.1443374067e-10
2.29897244097e-20
5.51669095573e-13
1.04538792222e-14
4.82508324357e-17
1.82373265937e-18
3.0145617763e-19
1.21748208211e-19
3.51242614369e-20
4.2615604802e-21
2.11687437053e-22
3.91108836475e-24
3.44352033253e-26
1.32887411778e-11
4.51701571105e-11
2.68994100574e-10
3.09547759498e-09
5.05726625479e-08
5.7516852484e-07
3.17779690218e-06
1.7251997367e-07
3.16300632217e-19
1.38294785477e-11
2.52023194401e-14
8.91464806272e-17
2.02847752587e-18
3.54191594213e-19
1.26466578656e-19
3.8484586346e-20
5.84430174063e-21
3.27142698888e-22
6.80318086177e-24
6.93163487378e-26
2.72952413404e-11
8.93293177844e-11
5.03065658816e-10
4.99143293976e-09
6.2663423323e-08
5.64549046789e-07
2.86023882525e-06
1.55716413796e-06
3.04671662384e-19
2.42646643631e-10
9.71948526708e-14
3.83587842086e-16
4.01310045517e-18
4.54252526241e-19
1.21774193373e-19
4.05608286687e-20
7.71147249849e-21
4.8814018938e-22
1.14475070137e-23
1.35160089613e-25
5.97426983194e-11
1.86970033704e-10
9.73684408485e-10
8.11117924771e-09
7.84988316388e-08
5.67698051672e-07
2.63033556372e-06
2.48789943511e-06
5.42236594009e-18
6.96991477051e-11
2.55597207365e-13
1.55085436862e-15
3.07573847348e-18
5.99277239583e-19
1.26397573766e-19
4.19283508012e-20
9.82694604967e-21
7.03448204262e-22
1.86428362244e-23
2.55420696809e-25
1.37933398919e-10
4.07865130965e-10
1.91342353913e-09
1.31251279555e-08
9.87483803799e-08
5.82352256353e-07
2.46294838493e-06
2.85550579971e-06
9.38371958134e-17
1.86861799369e-12
5.55303780429e-13
4.90781296869e-15
8.44251316027e-18
8.45200869717e-19
1.31885481438e-19
4.23623309172e-20
1.2140926146e-20
9.79337754699e-22
2.93872088674e-23
4.67810137522e-25
3.29554743809e-10
9.06641446542e-10
3.7423062044e-09
2.09234225049e-08
1.24020219521e-07
6.07739393305e-07
2.33349247876e-06
2.97504699217e-06
0
0
9.52126931861e-13
1.64746783765e-14
2.58857865014e-17
1.18257085852e-18
1.34965554245e-19
4.22820370469e-20
1.45770519443e-20
1.3186943968e-21
4.48665752226e-23
8.30665304609e-25
7.93716871124e-10
2.0012492077e-09
7.14955518179e-09
3.25447081911e-08
1.54739931574e-07
6.43311980088e-07
2.25558931636e-06
2.9530893616e-06
0
1.99864270988e-15
3.0812958342e-12
3.74112103945e-14
9.48743165181e-17
1.69554916658e-18
1.74904538418e-19
4.25843381514e-20
1.71085575964e-20
1.72170901591e-21
6.64377238942e-23
1.43110151551e-24
1.87168895487e-09
4.27705580515e-09
1.31228624533e-08
4.89956187282e-08
1.91099384383e-07
6.89503059095e-07
2.2173452903e-06
2.83028331638e-06
0
9.73066159406e-16
1.85609919514e-11
7.28820991097e-14
3.79061154134e-16
3.31082530511e-18
2.73848470049e-19
4.5360208036e-20
1.98244520119e-20
2.18853617387e-21
9.56047112359e-23
2.39422950878e-24
4.20295532918e-09
8.65668643639e-09
2.2829669019e-08
7.0999326826e-08
2.33200593836e-07
7.47555604609e-07
2.20824965563e-06
2.61788813677e-06
0
1.06711848816e-16
6.45308113454e-11
1.35317177785e-13
1.50351353627e-15
8.09328436685e-18
4.51634462788e-19
5.59723947573e-20
2.3068275955e-20
2.72561123519e-21
1.34005861196e-22
3.89173418044e-24
8.77638029822e-09
1.63055049225e-08
3.73056270405e-08
9.88261310781e-08
2.81432700905e-07
8.19454262778e-07
2.21611964944e-06
2.30177384038e-06
1.91674980469e-16
4.74895667802e-17
7.15056055987e-11
2.33396042065e-13
4.79104501539e-15
1.34023477004e-17
7.24200266024e-19
7.75724641861e-20
2.75325226594e-20
3.35533531973e-21
1.83521374012e-22
6.14883715249e-24
1.67468053041e-08
2.82756830115e-08
5.70997036391e-08
1.32486042284e-07
3.37191257633e-07
9.08245145009e-07
2.22697661664e-06
1.8003910914e-06
8.59550204843e-17
1.65116531259e-18
4.11199772851e-11
4.09755312791e-13
1.24275746167e-14
4.89108052241e-17
1.09602408601e-18
1.18010803555e-19
3.42979176554e-20
4.12681714911e-21
2.4659148893e-22
9.45077481035e-24
2.8973671521e-08
4.50902473003e-08
8.23146988179e-08
1.7250586381e-07
4.04039850193e-07
1.01943580137e-06
2.22404678678e-06
7.74515604707e-07
5.54056893999e-17
2.49080458198e-18
1.79642114509e-11
8.03906444213e-13
2.75544110714e-14
1.67115814214e-16
2.23026742188e-18
1.90830553379e-19
4.48030885105e-20
5.12388504809e-21
3.2672402106e-22
1.41530863861e-23
4.57190257936e-08
6.68488667798e-08
1.13344868959e-07
2.210987994e-07
4.88108490387e-07
1.15627848583e-06
2.184900975e-06
2.66611265681e-08
4.29404486267e-17
0
7.51972173487e-12
1.75849250164e-12
5.47853458233e-14
5.14911098546e-16
5.64066716899e-18
3.22931282933e-19
6.06673272932e-20
6.47011987984e-21
4.2910663183e-22
2.07026050617e-23
6.71835493895e-08
9.41664789475e-08
1.52038015345e-07
2.82786307665e-07
5.96557045341e-07
1.31184161702e-06
2.11679321775e-06
1.3388528706e-11
6.03601205982e-17
7.24915167627e-18
3.60467965637e-12
3.9108364811e-12
1.01613872027e-13
1.52252432923e-15
6.24142450166e-18
5.47183133442e-19
8.26457345232e-20
8.32151104211e-21
5.61210357439e-22
2.96880472555e-23
9.47241235554e-08
1.29352987896e-07
2.02492806737e-07
3.64161161023e-07
7.3424293027e-07
1.46139499146e-06
1.99926342571e-06
0
1.95012861497e-17
9.18079855599e-17
2.12476729133e-12
7.65772589557e-12
1.77731633438e-13
3.90862850287e-15
2.21988739178e-17
8.48136953913e-19
1.1032477857e-19
1.08940462794e-20
7.33825323442e-22
4.19514238772e-23
1.31772950212e-07
1.77019088345e-07
2.71055369754e-07
4.72380561875e-07
8.97982693014e-07
1.56404650993e-06
1.70764272427e-06
0
5.33766575639e-18
2.10726773811e-18
1.50687875645e-12
1.25780752059e-11
2.87972275777e-13
9.173370062e-15
7.02223273613e-17
1.82738165909e-18
1.54523397615e-19
1.45057295491e-20
9.6259578799e-22
5.88343180775e-23
1.84054923246e-07
2.43954738429e-07
3.65373112706e-07
6.11663046498e-07
1.0675463113e-06
1.5749154965e-06
8.88927211237e-07
0
1.85565241134e-18
0
1.22396865459e-12
1.71745185167e-11
4.38058420408e-13
1.97105950106e-14
2.05636086421e-16
3.8579536998e-18
2.41674890759e-19
1.97049378095e-20
1.27315427204e-21
8.26853524466e-23
2.59362749731e-07
3.38491629828e-07
4.92406906316e-07
7.77280407348e-07
1.19889120562e-06
1.46941186768e-06
6.25996979971e-11
0
7.7239953302e-19
5.70356712053e-18
1.21417840671e-12
2.01005653691e-11
6.28838377682e-13
3.91871126204e-14
5.60400659061e-16
8.41210732867e-18
3.71076914492e-19
2.73285090681e-20
1.70828502532e-21
1.17872603899e-22
3.64912200878e-07
4.65600120659e-07
6.47997809078e-07
9.36626890986e-07
1.24191768542e-06
1.07129813058e-06
7.786611571e-16
3.77113550402e-17
1.48107058595e-16
1.17435647774e-18
1.44207264795e-12
2.10955707571e-11
8.56872306835e-13
6.97191681841e-14
1.36820950122e-15
1.91387361213e-17
5.97599701508e-19
3.86631322038e-20
2.34107429004e-21
1.72807081493e-22
5.00912833792e-07
6.16891718062e-07
8.01298764898e-07
1.02468557648e-06
1.11190074788e-06
4.98643172727e-10
0
8.94826431868e-18
2.86791039274e-17
5.44575245794e-19
1.90472407809e-12
2.05592546933e-11
1.11191000208e-12
1.11036128424e-13
3.26112291533e-15
4.50378455245e-17
1.02561699621e-18
5.58734618974e-20
3.30128568771e-21
2.64010277883e-22
6.46812279608e-07
7.5342755872e-07
8.85667198345e-07
9.45268292579e-07
1.6652010588e-07
1.17480549289e-16
4.9073938209e-17
0
1.11600681625e-17
5.98576194625e-17
2.55007287626e-12
1.90388042792e-11
1.37088882619e-12
1.59531907125e-13
6.85743858274e-15
8.41447498721e-17
1.86358544328e-18
8.2272500384e-20
4.81585823211e-21
4.27714282249e-22
7.30180956452e-07
7.70116453116e-07
7.225823644e-07
6.44636861958e-08
0
7.32533043313e-17
2.07315305208e-17
6.92290723323e-15
0
1.12476955724e-15
2.99696353202e-12
1.76838294587e-11
1.71214508974e-12
2.24013186797e-13
1.35163177655e-14
2.03535811073e-16
3.40686877552e-18
1.19510842051e-19
7.17163150197e-21
7.42435430096e-22
2.30072856369e-44
8.85238161757e-46
1.27225341551e-43
5.07007472787e-43
8.37239363588e-43
7.29075848922e-44
4.63178606392e-42
3.67067818162e-43
2.23196254947e-41
1.49610610322e-42
9.97277031442e-41
5.64437040267e-42
4.25794888672e-40
2.04611788368e-41
1.74800103997e-39
7.17730244888e-41
6.88385028854e-39
2.42857864399e-40
2.5864014784e-38
7.86902629496e-40
9.19723328931e-38
2.51434106943e-39
3.06869393793e-37
2.69847806415e-37
9.55003824279e-37
2.25591813802e-38
2.7698394941e-36
6.46493241091e-38
7.51936865321e-36
1.74503435047e-37
1.92571773195e-35
4.46571252337e-37
4.69578860823e-35
1.09247260246e-36
1.0994596806e-34
2.57447360377e-36
2.48617600971e-34
5.8758331792e-36
5.44550196169e-34
1.30360532731e-35
1.15732934164e-33
2.8139679839e-35
2.39165452731e-33
5.92510602833e-35
4.81847761291e-33
1.22617992479e-34
9.49544093021e-33
2.52991303397e-34
1.83993336854e-32
5.34699037126e-34
3.542178569e-32
1.21065799761e-33
6.9153414904e-32
3.07651605094e-33
1.41253014694e-31
8.91661007812e-33
3.1202999883e-31
2.85011262032e-32
7.56672968664e-31
9.51459090082e-32
1.9827191648e-30
3.17724807018e-31
5.42005513118e-30
1.03537326691e-30
1.49417886044e-29
3.25346444365e-30
4.06005157988e-29
9.81063549604e-30
1.07408922367e-28
2.83561965066e-29
2.75056533476e-28
7.85965358047e-29
6.80021138924e-28
2.09085366915e-28
1.6212931806e-27
5.34262546959e-28
3.72843475768e-27
1.31262863564e-27
8.27984626244e-27
3.10514757896e-27
1.77784144412e-26
7.08201296547e-27
3.69335158052e-26
1.55854939103e-26
7.42430949532e-26
3.31037129337e-26
1.4442168012e-25
6.78588962008e-26
2.71917050923e-25
1.34231053013e-25
4.95560113525e-25
2.56146781961e-25
8.73935453096e-25
4.71264238739e-25
1.49069477928e-24
8.35418814791e-25
2.45911200664e-24
1.4266279508e-24
3.92667169119e-24
2.34896480725e-24
6.08258130605e-24
3.73829028528e-24
9.17829545249e-24
5.77760105714e-24
1.35783510633e-23
8.7357813737e-24
1.9884544635e-23
1.30657078211e-23
2.91932335371e-23
1.96080511408e-23
4.35808267976e-23
2.99596914973e-23
6.72232570984e-23
4.73954330108e-23
1.0841458128e-22
7.83689710682e-23
1.85566216023e-22
1.36460870271e-22
3.79132671522e-22
3.07826260795e-22
)
;

boundaryField
{
    inletfuel
    {
        type            calculated;
        value           uniform 0;
    }
    inletair
    {
        type            calculated;
        value           uniform 0;
    }
    outlet
    {
        type            calculated;
        value           uniform 0;
    }
    axis
    {
        type            empty;
    }
    leftside
    {
        type            calculated;
        value           uniform 0;
    }
    burnerwall
    {
        type            calculated;