/*--------------------------------*- C++ -*----------------------------------*\
  =========                 |
  \\      /  F ield         | OpenFOAM: The Open Source CFD Toolbox
   \\    /   O peration     | Website:  https://openfoam.org
    \\  /    A nd           | Version:  dev
     \\/     M anipulation  |
\*---------------------------------------------------------------------------*/
FoamFile
{
    version     2.0;
    format      ascii;
    class       volScalarField;
    location    "0.3";
    object      edc::R_O2;
}
// * * * * * * * * * * * * * * * * * * * * * * * * * * * * * * * * * * * * * //

dimensions      [1 -3 -1 0 0 0 0];

internalField   nonuniform List<scalar> 
1629
(
0
0
0
0
0
0
-6.24164870228e-17
-3.08219965711e-16
-6.36954816905e-15
-1.25252687939e-13
-1.2952451654e-12
-5.62975265177e-11
-2.20568689158e-11
-2.33415839078e-10
-5.62241006645e-09
-2.64506898255e-09
-2.70031675972e-08
-4.71920815326e-07
-2.32823852422e-07
-2.44195714811e-06
-3.45278267274e-05
-1.33194578294e-05
-0.000131188442915
-0.00191097384561
-5.80912559122e-05
-0.000288284346742
-0.00182697952727
-0.000170550887922
-0.000527412521331
-0.00203833141011
-0.000385206628792
-0.000869291676017
-0.00248985695085
-0.000725540734228
-0.00131422161387
-0.00302105856631
-0.00121358029808
-0.0019090855004
-0.00392754213514
-0.00185123173796
-0.00263091935415
-0.00483883086568
-0.00263121201215
-0.00347687151158
-0.00581978306052
-0.00349203427534
-0.00434848163083
-0.00660092965219
-0.00433257286843
-0.00514493970002
-0.00719042247776
-0.00503257489495
-0.00575467683357
-0.00749813429236
-0.00549034627145
-0.00608850774449
-0.00748543100636
-0.00566938871895
-0.0061401348676
-0.00723771386465
-0.00561607924072
-0.00599698286418
-0.00689547735212
-0.00541481700064
-0.0057448782629
-0.00653386002024
-0.0051231223382
-0.00541830902019
-0.00611820996973
-0.00476370637953
-0.00502269825925
-0.00562513210311
-0.00435862181524
-0.00458101491481
-0.00509045720329
-0.00394957153946
-0.00414313273664
-0.00458277851442
-0.00358206853028
-0.00376080551143
-0.00415635661884
-0.00328660612302
-0.0034527453692
-0.00381225282234
-0.0030491884928
-0.00319788247209
-0.00351417162595
-0.00284008300413
-0.00296773543653
-0.00323381750111
-0.00263564207244
-0.00274303926103
-0.00296511417679
-0.0024381616457
-0.00253051323568
-0.00272557384094
-0.00227168736669
-0.00235713600733
-0.00254511441605
-0.00216072715581
-0.00224686100568
-0.00244388521911
-0.0021243191469
-0.00221829588547
-0.00243287684561
-0.00217724885304
-0.00228008348137
-0.00251534380655
-0.00232589110353
-0.00243844640621
-0.00269444192496
-0.00257272640768
-0.00269356509688
-0.00296641388497
-0.00290924562226
-0.0030365901026
-0.00332140338471
-0.00332369863046
-0.00345596963355
-0.00375064815461
-0.00382392036883
-0.00396334278957
-0.0042774473955
-0.00446986542796
-0.00462603992138
-0.00498072679996
-0.00538873199878
-0.00557494049273
-0.00600063466589
-0.00677541722046
-0.00700873596703
-0.00754378098938
-0.00891060373412
-0.00921272355154
-0.00990579010536
-0.0121926876115
-0.0125909277249
-0.0135032267804
-0.0171540647727
-0.017680534657
-0.0188831759561
-0.0244075089921
-0.0250929308498
-0.0266521915959
-0.0344303292423
-0.0352891271925
-0.0372317524318
-0.047079621017
-0.0480847983918
-0.0503425471886
-0.0608873938487
-0.061948051075
-0.0643101281278
-0.0726491609854
-0.0736184206
-0.0757560607702
-0.0782429088085
-0.0789778260404
-0.0805811148658
-0.074955560558
-0.0753964849771
-0.0763459188536
-0.0635787432712
-0.0637712463772
-0.0641777122165
-0.0479358224434
-0.0479793002729
-0.0480641956342
-0.0323926027965
-0.0323793624907
-0.0323460524866
-0.0199480308105
-0.0199429546612
-0.0199339441283
-0.0118928563559
-0.0119420045825
-0.0120590537918
-0.00833960320408
-0.00848992581262
-0.00883934426352
-0.00924662772322
-0.00958410474261
-0.0103626305468
-0.0160545183635
-0.0167715537598
-0.0184168557424
-0.0338189636413
-0.0353187483547
-0.0387412593649
-1.35736716079e-09
-6.43291796304e-08
-4.19074978712e-06
-0.00027973680988
-0.0192341039651
-0.00894463342779
-0.00668829263021
-0.00627192222376
-0.00655899833059
-0.00913657455672
-0.0102614081131
-0.0112259161984
-0.011140582035
-0.0109569823247
-0.0104956939739
-0.00975612818913
-0.00898099644095
-0.00834993776809
-0.00782665804911
-0.00724153337649
-0.00656205180496
-0.00586176456888
-0.00523481269516
-0.00472594975232
-0.00431008521232
-0.00393560470562
-0.00358307092781
-0.00326467585166
-0.00300427867895
-0.00282712559289
-0.00274757338661
-0.00276492843222
-0.00287659036842
-0.00308081355033
-0.00337212946282
-0.00373925587116
-0.00418378760358
-0.004744672614
-0.00551562762155
-0.00664798670053
-0.00835946067454
-0.0109608598114
-0.014886593067
-0.0206957545107
-0.0289834845853
-0.0401067143499
-0.0536427495274
-0.0677138819014
-0.078787838417
-0.0828162008307
-0.0776435182709
-0.0647168477826
-0.0481649097409
-0.0322947174683
-0.0199304622903
-0.0122496101028
-0.00938263698947
-0.0115571685937
-0.0209173320023
-0.0438989604471
0
-4.12783860444e-14
-7.31979310607e-14
-1.13233582767e-13
-1.07722442678e-13
-5.99757357407e-14
-2.27429310051e-14
-6.20210110872e-15
-2.06729486116e-15
0
0
0
0
0
0
0
0
0
0
0
-4.76933812862e-13
-8.23025994451e-13
-1.55228533561e-12
-2.79681537618e-12
-2.50601563537e-12
-1.25759286232e-12
-4.15429456459e-13
-1.0075074288e-13
-1.64477884914e-14
-4.1118240918e-15
0
0
0
0
0
0
0
0
0
0
-8.4694782879e-12
-1.06585387954e-11
-2.09098508684e-11
-3.97032046835e-11
-3.32013961819e-11
-1.4839952879e-11
-4.29915921968e-12
-9.07811419037e-13
-1.5571618787e-13
-2.04875868677e-14
-2.04870465511e-15
0
0
0
0
0
0
0
0
0
-5.85612599216e-10
-5.13210783269e-10
-4.19383924321e-10
-4.93904234731e-10
-3.44874163105e-10
-1.37589651125e-10
-3.58936174203e-11
-6.99297951806e-12
-1.07388810696e-12
-1.36767377087e-13
-1.42881885581e-14
-2.04111431397e-15
0
0
0
0
0
0
0
0
-8.18485255202e-08
-1.81240996178e-08
-1.28681129299e-08
-7.21861788388e-09
-3.76398697807e-09
-1.29221410281e-09
-3.01859462836e-10
-5.30048802527e-11
-7.51443023223e-12
-8.74475101412e-13
-8.54033770108e-14
-6.09991079704e-15
0
0
0
0
0
0
0
0
-1.81005407639e-05
-1.43456472357e-05
-1.05494484278e-06
-1.17108376306e-07
-4.05437602901e-08
-1.17413033154e-08
-2.42883075316e-09
-3.82878028463e-10
-4.88181681834e-11
-5.28133059139e-12
-4.86102137423e-13
-3.84796439646e-14
-2.02517286529e-15
0
0
0
0
0
0
0
-0.00243205388523
0.00982729947413
0.000148994235681
3.66754044688e-07
-2.8795145223e-07
-8.89001255766e-08
-1.71186127687e-08
-2.4101838157e-09
-2.79996463591e-10
-2.7978663389e-11
-2.45493066935e-12
-1.91608298316e-13
-1.21008977336e-14
0
-2.0169356636e-15
0
0
0
0
0
-0.172230138817
-69.2013475443
0.144965372332
0.0030628629992
2.37254698338e-05
-1.52616129856e-07
-8.08982443332e-08
-1.12803699525e-08
-1.23628225999e-09
-1.19582460083e-10
-1.02766541346e-11
-7.87274724347e-13
-5.4221127427e-14
-4.01633813637e-15
0
0
0
0
0
0
-0.0979608769673
-2.10058214954
-0.00135315084156
0.00149590765045
4.52760032693e-05
5.89460755163e-07
-1.05492106637e-07
-2.47184853466e-08
-3.33960918203e-09
-3.60956074853e-10
-3.33142895626e-11
-2.69334741147e-12
-1.93931090352e-13
-9.9962319522e-15
0
0
0
0
0
0
-0.0485922539646
-0.28594191849
-0.00753064676918
0.000554090678782
4.71775740761e-05
1.49932332405e-06
-6.45388756879e-08
-3.69146074683e-08
-6.6608020847e-09
-8.48265287861e-10
-8.78984003468e-11
-7.74471308319e-12
-5.85093640639e-13
-3.78108044751e-14
-1.99021009676e-15
0
0
0
0
0
-0.0273661347053
-0.0706904572185
-0.0196553405541
0.000397201536541
5.97301646037e-05
3.33346155306e-06
6.30916614033e-08
-4.58112718637e-08
-1.16246463241e-08
-1.76158208835e-09
-2.05754310106e-10
-1.97710513415e-11
-1.6102824698e-12
-1.10911247883e-13
-7.92291474579e-15
-1.98128079663e-15
0
0
0
0
-0.0259030060169
-0.586403879317
-33.3865789009
0.0620614891813
0.00209380800154
4.01519596653e-05
9.06469016969e-07
-5.17719488399e-08
-2.16223656405e-08
-3.67373014359e-09
-4.61380779838e-10
-4.73608606403e-11
-4.1212648179e-12
-3.01531994034e-13
-1.97095872459e-14
-1.97156910405e-15
0
0
0
0
-0.0449882889374
-0.963449847452
-28.8208438501
-0.0284475342795
0.0013172440183
7.77522910424e-05
2.42529256418e-06
-1.11473189472e-08
-3.71717137123e-08
-7.27147589667e-09
-9.86474908399e-10
-1.08176484724e-10
-9.92060920058e-12
-7.74502529502e-13
-5.09834582627e-14
-5.88474589561e-15
0
0
0
0
-0.0416648274894
-0.436821981732
-20.5495817296
-0.0833177509024
3.45009425071e-05
7.88080532401e-05
4.40821058652e-06
1.50183609862e-07
-4.16731825895e-08
-1.21639454876e-08
-1.89900540355e-09
-2.26361058156e-10
-2.21703801592e-11
-1.8334408109e-12
-1.26786534108e-13
-7.8052978254e-15
-1.95694293556e-15
0
0
0
-0.0393285423002
-0.295203723115
-22.6817139507
-0.128741918617
-0.00130822671721
2.07509594805e-05
6.26637801356e-06
4.7834698329e-07
-2.38909490386e-08
-1.67598016039e-08
-3.22648433504e-09
-4.29858148553e-10
-4.55037387125e-11
-4.02919362502e-12
-2.96810953271e-13
-2.13488081225e-14
-1.94712799581e-15
0
0
0
-0.0307795177658
-0.128756874415
-2.65112730661
-18.8738158818
0.00795212139298
0.000966172527247
3.27185925103e-05
1.33334674333e-06
3.29015984019e-08
-2.00113844078e-08
-4.98807827354e-09
-7.50289578708e-10
-8.68045334264e-11
-8.23143506394e-12
-6.48157699908e-13
-4.24603081492e-14
-1.93712954308e-15
0
0
0
-0.0254225719466
-0.0836131728163
-0.647233120282
-17.5811790883
-0.00880876513
0.000966781586669
5.68281712132e-05
2.35089114925e-06
1.26026753003e-07
-1.79072976992e-08
-7.00313478342e-09
-1.22314142562e-09
-1.55183426794e-10
-1.57584100071e-11
-1.32140799994e-12
-9.21104146959e-14
-5.78092826505e-15
0
0
0
-0.020687256967
-0.0509690544722
-0.228877330565
-13.5249460001
-0.04838948668
5.68993910888e-05
4.21877915028e-05
2.87606453264e-06
2.4625583591e-07
-1.20258001435e-08
-8.86651493571e-09
-1.84807420903e-09
-2.59472729189e-10
-2.83752411193e-11
-2.53934045064e-12
-1.88858608969e-13
-1.15001767597e-14
0
0
0
-0.016719377607
-0.033106216448
-0.121982332632
-12.7804294556
-0.0741642076358
-0.000655443975388
9.10134577043e-06
3.01310430379e-06
3.75697036158e-07
1.03320916283e-08
-9.57936651262e-09
-2.57382642811e-09
-4.07928770845e-10
-4.82512327513e-11
-4.62683376146e-12
-3.6215619417e-13
-2.28758136868e-14
-2.01598480744e-15
0
0
-0.0141429054695
-0.0267945162171
-0.0956340192191
-14.5457454653
-0.132635117554
-0.00147944922537
-1.97704706278e-05
2.86314959229e-06
5.60883462371e-07
4.89730132165e-08
-7.64254605788e-09
-3.37232695721e-09
-6.05737483638e-10
-7.83283899903e-11
-8.02410148509e-12
-6.65158770098e-13
-4.55008492087e-14
-2.01885351666e-15
0
0
-0.0127028029898
-0.0235791311345
-0.0804592625122
-9.39291486979
-16.0809534553
-0.00783964305864
0.00103058783786
4.91726143021e-05
1.70644679839e-06
1.32833881234e-07
-1.81249147274e-09
-3.99786928359e-09
-8.65210408578e-10
-1.2292957362e-10
-1.33757673034e-11
-1.17203514384e-12
-8.67272712392e-14
-6.06710762905e-15
0
0
-0.0116516298684
-0.0202779669111
-0.0629582014149
-3.11812820779
-12.0692274149
-0.0576920247188
0.000226862244096
5.41339888606e-05
2.39672080223e-06
2.35974555952e-07
8.97818621298e-09
-4.22197779871e-09
-1.19710685318e-09
-1.86570857459e-10
-2.16010971076e-11
-1.99576638986e-12
-1.51863896529e-13
-1.01325792144e-14
0
0
-0.0103299820572
-0.0157890986042
-0.0408733656033
-0.993925149759
-9.03695739052
-0.0736903048378
-0.000527346524152
1.67139093366e-05
2.40184731907e-06
3.1994761583e-07
2.65444504395e-08
-3.99008386759e-09
-1.56364969337e-09
-2.74974750322e-10
-3.38351506864e-11
-3.3070047261e-12
-2.55416457485e-13
-1.62502010203e-14
0
0
-0.0088721784358
-0.0121155746227
-0.0276293950459
-0.443983011174
-9.63226286539
-0.0950512385964
-0.00120948649299
-1.50847702319e-05
2.03886867689e-06
3.88559114194e-07
5.29446643748e-08
-2.02591744361e-09
-1.86156078954e-09
-3.88835736912e-10
-5.14925309687e-11
-5.32267212959e-12
-4.39366777052e-13
-3.25860450991e-14
0
0
-0.00753641674526
-0.00967366877911
-0.0209902416206
-0.254961447733
-8.28770160973
-9.13142554059
-0.003559782087
0.000607238134662
2.4561159224e-05
9.97903509659e-07
1.04636272243e-07
2.88640101937e-09
-2.1979297322e-09
-5.24404194123e-10
-7.63823948177e-11
-8.34404561081e-12
-7.20779245965e-13
-5.10638789342e-14
-3.78078408585e-15
0
-0.00647240813975
-0.00824273260957
-0.0180909870062
-0.171804536858
-5.58124229326
-7.85787451328
-0.0177099625897
0.000799248859315
5.85731071015e-05
1.85201161814e-06
1.82798853997e-07
1.3894242724e-08
-2.05271987888e-09
-6.68922462436e-10
-1.10185218498e-10
-1.27423861757e-11
-1.15848187044e-12
-8.60596895316e-14
-3.8526423702e-15
0
-0.00569657101912
-0.0075085955259
-0.01701862472
-0.127197953763
-3.40776203917
-7.46023004444
-0.073349506752
-5.45196805099e-05
3.70902659506e-05
2.07882266296e-06
2.43398537409e-07
2.64420833447e-08
-5.96306712618e-10
-7.97074356149e-10
-1.52943208614e-10
-1.89736510195e-11
-1.82272992805e-12
-1.43924844188e-13
-7.84751600111e-15
0
-0.00510673770542
-0.00704017528282
-0.0160285233041
-0.0971896812838
-2.28554055313
-6.45275633361
-0.156662107937
-0.00135198119462
-7.56507029172e-06
1.55677515015e-06
2.6528319497e-07
4.07830663311e-08
1.74568589035e-09
-8.56283384547e-10
-2.07461538324e-10
-2.7542547326e-11
-2.79488534684e-12
-2.33190503607e-13
-1.99716555165e-14
0
-0.0046089054379
-0.00661206624639
-0.0147467408924
-0.0765410283802
-1.66961816785
-6.70601676511
-0.285443093691
-0.00203273941617
-3.77455189066e-05
6.91356304271e-07
2.62010987983e-07
5.43271367616e-08
3.60241589004e-09
-7.64550907872e-10
-2.69290404238e-10
-3.90018584769e-11
-4.20136826635e-12
-3.70839482078e-13
-2.84520705549e-14
0
-0.00418766748763
-0.00625713256819
-0.0136100977651
-0.0632289821214
-1.20032903814
-5.4279868051
-6.72517329064
-0.00459100862507
0.000620399359079
2.39720884429e-05
7.96249145076e-07
9.17179800906e-08
8.13878089934e-09
-4.43327843667e-10
-3.29034797263e-10
-5.3934209884e-11
-6.1998969461e-12
-5.74181514821e-13
-4.54822288765e-14
0
-0.00385188584756
-0.00599564349336
-0.0127022783909
-0.053829862807
-0.848395637888
-3.80311232789
-5.54633876256
-0.0206125460682
0.000771154295281
5.51876575528e-05
1.52616940567e-06
1.49074695409e-07
1.65652025109e-08
-6.8761776713e-11
-3.68199353667e-10
-7.26679567797e-11
-8.96085323025e-12
-8.73442695706e-13
-7.14865142343e-14
0
-0.00361726036101
-0.00584524613354
-0.0120871833983
-0.0475884530318
-0.624656266995
-2.60284269558
-5.51044644519
-0.0783489180043
0.000217204615488
4.79208878152e-05
1.99914714655e-06
2.0389692669e-07
2.70888366923e-08
3.25370988991e-10
-3.57066632736e-10
-9.43491699631e-11
-1.26758814619e-11
-1.30582417691e-12
-1.15448459262e-13
-1.08276394098e-14
-0.00349918825556
-0.00582400231874
-0.0118100153189
-0.0441245238482
-0.483271050513
-2.03066060358
-5.319670465
-0.262238766411
-0.00116601679986
1.71447960862e-05
1.92631543017e-06
2.31554420449e-07
3.77682328074e-08
2.43119033212e-09
-2.66574038227e-10
-1.17035616433e-10
-1.75680639457e-11
-1.91788448035e-12
-1.65198564057e-13
-1.07303007066e-14
-0.00349555825997
-0.00590238955299
-0.0117726439718
-0.0423407341218
-0.398074356602
-1.70275419224
-4.70836581599
-2.72278573245
-0.00212011738997
0.000127821749975
5.24301488548e-06
3.39433699101e-07
5.14967330749e-08
6.18128210368e-09
-6.63604269656e-11
-1.50288336722e-10
-2.3863326886e-11
-2.76593063068e-12
-2.56341306707e-13
-1.06374095853e-14
-0.00358277832007
-0.00601355814813
-0.0118142325942
-0.0410644508401
-0.333396394117
-1.42212031056
-3.77724875711
-2.86584604608
-0.00328120332951
0.000371609241635
1.65127351309e-05
6.18233051285e-07
7.27523552171e-08
9.44343756084e-09
3.29654543063e-10
-1.82505943668e-10
-3.15953123253e-11
-3.93144392433e-12
-3.63938921749e-13
-2.10969073732e-14
-0.00374864467451
-0.00616856711228
-0.012046060355
-0.0407515651564
-0.289038650601
-1.21367755279
-2.90168175118
-3.3474837348
-0.0114322748286
0.000524841100466
3.37557479896e-05
9.91465475907e-07
1.03425856192e-07
1.35527051907e-08
1.00238981349e-09
-1.94722998138e-10
-4.03624029913e-11
-5.48350863088e-12
-5.29843927449e-13
-3.13887572968e-14
-0.00398948109002
-0.00641009668587
-0.0125824949879
-0.0416393684344
-0.260901373014
-1.04885332908
-2.17042716906
-3.7514708904
-0.0508449717185
0.000390652133622
4.34404860912e-05
1.43705646048e-06
1.37268272527e-07
1.94671349299e-08
1.90586217329e-09
-1.65036711293e-10
-4.90331605638e-11
-7.45936364636e-12
-7.38286522467e-13
-3.1140954076e-14
-0.00430297720877
-0.00678373610869
-0.0135024053187
-0.043817536056
-0.245129235459
-0.924826294856
-1.66779073258
-3.93300071978
-0.242963457609
-0.000224967466191
4.61036231957e-05
1.91021306419e-06
1.71011988062e-07
2.64443733518e-08
2.72916143793e-09
-7.04116204108e-11
-5.56918364497e-11
-9.86150165445e-12
-1.01008288417e-12
-4.12008928874e-14
-0.00469417388916
-0.0073423781885
-0.0148802437035
-0.0473414892949
-0.238049245284
-0.82168890114
-1.30531897015
-3.83812116433
-1.15083483693
-0.000820026426193
9.98366759079e-05
3.84158483256e-06
2.38415533038e-07
3.40320436469e-08
3.65083441429e-09
1.15905378021e-10
-5.71860217724e-11
-1.26348936958e-11
-1.36250043999e-12
-5.11115888601e-14
-0.00519235033159
-0.00815619251992
-0.0168124474594
-0.0522599092091
-0.23625960116
-0.725546537012
-1.01597747785
-3.53741635466
-1.37553256218
-0.00141446307445
0.000181095782297
7.9890288086e-06
3.5625652605e-07
4.5064524372e-08
5.25914091219e-09
4.24348335046e-10
-4.8875332001e-11
-1.56209211653e-11
-1.77475619172e-12
-6.08784368319e-14
-0.00586839644029
-0.00933023462463
-0.0194649097933
-0.0587656415784
-0.237897826001
-0.644307502087
-0.808850411554
-3.12548950083
-1.64405111472
-0.00385747085063
0.000259739670367
1.44460621151e-05
5.14093004492e-07
5.68761811137e-08
7.970302483e-09
8.07992290532e-10
-3.11646115363e-11
-1.84634796849e-11
-2.26907033325e-12
-8.05790916476e-14
-0.00684104539126
-0.0110219161787
-0.0230970334421
-0.0671670282433
-0.241960783623
-0.574442829461
-0.666706192234
-2.68324039926
-1.95935603637
-0.0153896132994
0.000288528154859
2.2675500183e-05
6.91637187529e-07
6.99961484182e-08
1.04498072283e-08
1.31730241724e-09
-3.09238956885e-11
-2.05575098269e-11
-2.80336379369e-12
-1.10002323157e-13
-0.00828255356739
-0.0134613981484
-0.0280683521406
-0.0777740465
-0.247498398746
-0.513298728609
-0.566487763954
-2.29235224884
-2.21823304059
-0.0670383329709
0.000154785683113
3.06071366041e-05
9.6205205774e-07
8.47335975511e-08
1.30929379624e-08
1.95927029347e-09
-1.72904479346e-11
-2.07894998461e-11
-3.33761241739e-12
-1.48948464722e-13
-0.0104386747072
-0.016977433568
-0.0348299609046
-0.0907728598681
-0.253389698057
-0.459075240875
-0.493593147715
-1.98424142379
-2.37848729417
-0.260859895987
-4.56069641686e-05
5.14440321325e-05
1.60726912145e-06
1.07064365258e-07
1.63283133252e-08
2.66384024356e-09
1.65275035948e-11
-1.79363024807e-11
-3.81871612061e-12
-1.67646115429e-13
-0.0136591966765
-0.0220135049543
-0.0438653782481
-0.106017444856
-0.258073296582
-0.409426291136
-0.433581318205
-1.72579013043
-2.4490911033
-0.417084063884
-3.19753968281e-05
8.78473429778e-05
3.04527508514e-06
1.4685520449e-07
1.97669171085e-08
3.40989021853e-09
7.66432078883e-11
-1.04171875645e-11
-4.13780041156e-12
-1.76314619521e-13
-0.018419571422
-0.0291056306727
-0.0555523462882
-0.122786681849
-0.259513096925
-0.361915772743
-0.37919032587
-1.50849455726
-2.46117153466
-0.496901828905
-4.63500534387e-05
0.000122366433996
5.2127754044e-06
2.03304189213e-07
2.39635046078e-08
4.22533986093e-09
1.66876760719e-10
3.46695216161e-12
-4.16406851402e-12
-2.23817187419e-13
-0.0252971320393
-0.0387799991244
-0.0699210773934
-0.139602406876
-0.255733215097
-0.315918820347
-0.3271068898
-1.33605807099
-2.43136358126
-0.578842656149
-0.000569718963245
0.000155748111104
8.81569091264e-06
2.87717163034e-07
2.91901897223e-08
5.08999538985e-09
2.8873002941e-10
2.5240061803e-11
-3.75497816729e-12
-2.12728264582e-13
-0.034834773963
-0.0512949026294
-0.0862732145412
-0.154133732437
-0.24511472874
-0.270963533036
-0.284542453568
-1.20922041801
-2.37321976603
-0.659280847473
-0.00394476628954
0.00015691489404
1.57437795908e-05
4.4928939325e-07
3.60670281207e-08
6.04886071341e-09
4.43714444807e-10
5.5950228055e-11
-2.75116878702e-12
-2.01820703038e-13
-0.0471997216682
-0.066178595994
-0.102774519381
-0.163430982541
-0.226915407295
-0.227646480713
-0.250867679114
-1.1276943861
-2.3014804908
-0.722805634661
-0.0156067344952
0.000139455713722
2.72243067812e-05
7.93715530845e-07
4.77215592017e-08
7.21484118376e-09
6.34914925385e-10
9.60594596229e-11
-1.02087307533e-12
-1.71995142157e-13
-0.0615984666719
-0.0816712467127
-0.116343023158
-0.164639717044
-0.201620918942
-0.187132058914
-0.225950594811
-1.08540865933
-2.21945136929
-0.76173114331
-0.0372091083353
0.000183949542545
4.37689587264e-05
1.56380211724e-06
7.1217219158e-08
8.78251040594e-09
8.69237192258e-10
1.45751169994e-10
1.50492638017e-12
-8.55521206574e-14
-0.0756856085922
-0.094508132127
-0.123268717148
-0.156090902506
-0.171062813009
-0.150860147616
-0.209673376555
-1.07694907456
-2.12807166339
-0.775479529776
-0.0548752992484
0.000353157790472
6.29565555317e-05
3.21303550876e-06
1.15223718603e-07
1.12945436013e-08
1.16519619695e-09
2.05819963842e-10
4.93429331639e-12
3.78611218006e-14
-0.0856457427988
-0.100694614514
-0.120701848765
-0.138265498422
-0.138184502941
-0.120477730761
-0.20282652571
-1.10397136808
-2.03394274168
-0.747625129322
-0.0660367221104
0.00059954774698
8.10151394303e-05
6.02452313129e-06
1.965064027e-07
1.53765088313e-08
1.56547169262e-09
2.78790113916e-10
9.29134735751e-12
2.45392480621e-13
-0.0876591512884
-0.0974399826154
-0.108325632316
-0.114062580269
-0.106690936768
-0.0989092395747
-0.214722396584
-1.1378102337
-1.94074904897
-0.703025540129
-0.0731405904216
0.000797135198349
9.9422374054e-05
1.02189203851e-05
3.41359430845e-07
2.19096353437e-08
2.14639015031e-09
3.69851903293e-10
1.4682833598e-11
5.56313577902e-13
-0.080286069955
-0.0850586748426
-0.0888763053798
-0.0877703582877
-0.0799872047216
-0.0883118857054
-0.247925286895
-1.20598853608
-1.79405417714
-0.653248468943
-0.0778720995515
0.000752620914586
0.000119426434036
1.5616659529e-05
5.99409895991e-07
3.23488389272e-08
3.03373332915e-09
4.87095094833e-10
2.12458285285e-11
1.01024723437e-12
-0.0656738227485
-0.0669983769534
-0.0668373354129
-0.063581558689
-0.0606518688475
-0.0902820138026
-0.304300515916
-1.28939208964
-1.63389103859
-0.595738484164
-0.0799189671494
0.000330562288206
0.000143523629674
2.19901853837e-05
1.10664662012e-06
4.96263472855e-08
4.41110391991e-09
6.39977138097e-10
2.91723781386e-11
1.59207001747e-12
-0.0482087726766
-0.0479020097263
-0.0465569437941
-0.0447346352285
-0.0506477563678
-0.106502937194
-0.388553182026
-1.36960742815
-1.46613139755
-0.529343834432
-0.0786254534385
-0.000383378971091
0.000177403298002
2.94896595728e-05
1.93875350083e-06
7.76465654914e-08
6.62002383764e-09
8.39514709171e-10
3.87528429692e-11
2.36362972823e-12
-0.0320805801506
-0.0315726370527
-0.0310812949541
-0.0333101736223
-0.0515791503749
-0.139654378112
-0.511327157025
-1.42027414426
-1.28610657591
-0.457105677083
-0.0740564068326
-0.00119792537896
0.000222011122849
3.79091821013e-05
3.28552012385e-06
1.25508759908e-07
9.65355072286e-09
1.09768603764e-09
5.02948413623e-11
3.38682737203e-12
-0.0199079276482
-0.0201822588671
-0.0220099566331
-0.0305401101507
-0.0651653129255
-0.194362668417
-0.684871832624
-1.41435223254
-1.09623112397
-0.382513118545
-0.0667000656425
-0.0018633764833
0.000277517505905
4.7728664739e-05
5.25980475314e-06
2.13904283915e-07
1.35208687578e-08
1.43116845719e-09
6.4287544793e-11
4.72966643678e-12
-0.0127511989403
-0.0146224913152
-0.0202929003855
-0.0383103747234
-0.0965563608836
-0.287370438629
-0.873358346314
-1.33956477487
-0.904061236645
-0.309858889675
-0.0574741426305
-0.00219863580954
0.000339051760053
5.89383380837e-05
7.9177218458e-06
3.70572796818e-07
1.94720155275e-08
1.85336648642e-09
8.14412197663e-11
6.47893745174e-12
-0.0107878915577
-0.0153320256866
-0.0271988661231
-0.059917898388
-0.153719951314
-0.441145423953
-1.02786873764
-1.19506393799
-0.716563276831
-0.242213840702
-0.0473028947198
-0.00217376770258
0.000395590623131
6.97034928145e-05
1.10432246763e-05
6.34414878964e-07
2.82004256815e-08
2.36676856265e-09
1.02756162308e-10
8.85712467182e-12
-0.014595059682
-0.0239195294692
-0.0465003217007
-0.103586431275
-0.256882898549
-0.649866580892
-1.08229369793
-0.994644639318
-0.541681179652
-0.181748033774
-0.0370130827804
-0.0018578779686
0.000438792971032
7.96048153666e-05
1.46175585687e-05
1.06227104202e-06
4.12978187469e-08
2.97403322147e-09
1.29823077097e-10
1.21970822582e-11
-0.0271647190422
-0.0456063069325
-0.0878105609466
-0.189162315936
-0.441268994023
-0.821042920525
-0.999740257341
-0.767233089059
-0.387208202742
-0.129749524124
-0.0273073086711
-0.00137857751191
0.00046234320983
8.79983461042e-05
1.83320182673e-05
1.76405650916e-06
6.14885436244e-08
3.67036590603e-09
1.65096816507e-10
1.71894344136e-11
-0.0566055413614
-0.0931147608972
-0.173956556162
-0.349782155325
-0.618789386534
-0.844591529218
-0.803444070921
-0.544698005572
-0.26206371901
-0.088911710902
-0.0195108610717
-0.00101796029937
0.000478032083471
9.7139606111e-05
2.23554172589e-05
2.67711208938e-06
9.20284742023e-08
4.32668344997e-09
2.09517323889e-10
2.52401704007e-11
0
0
0
0
0
0
0
0
0
0
0
0
0
0
0
0
0
0
0
0
0
0
0
0
0
0
0
0
0
0
0
0
0
0
0
0
0
0
0
0
0
0
0
0
0
0
0
0
0
0
0
0
0
0
0
0
0
0
0
0
0
0
0
0
0
0
0
0
0
0
-2.66869114487e-14
0
0
0
0
0
-2.58391391048e-14
0
0
0
0
0
2.49530654247e-14
0
-2.46545259577e-14
-7.07528638672e-14
-4.87127827563e-14
-7.14293017735e-14
0
-7.21245688841e-14
0
7.28355355073e-14
2.34746249811e-14
0
6.95909115527e-14
0
1.37634069251e-13
2.24886819073e-13
3.1792630367e-13
3.02494634096e-13
4.95301221795e-13
4.5746978041e-13
8.71870086992e-13
9.2194659102e-13
1.28942659647e-12
1.47042565301e-12
1.96953029159e-12
2.41680496441e-12
2.86390110323e-12
3.92927896255e-12
4.16227936964e-12
5.86952763093e-12
6.084388026e-12
8.98412583572e-12
8.99815844985e-12
1.43129506042e-11
1.36698627616e-11
2.29818224628e-11
2.35139341598e-11
4.47658231686e-11
)
;

boundaryField
{
    inletfuel
    {
        type            calculated;
        value           uniform 0;
    }
    inletair
    {
        type            calculated;
        value           uniform 0;
    }
    outlet
    {
        type            calculated;
        value           uniform 0;
    }
    axis
    {
        type            empty;
    }
    leftside
    {
        type            calculated;
        value           uniform 0;
    }
    burnerwall
    {
        type            calculated;
        value           uniform 0;
    }
    front
    {
        type            wedge;
    }
    back
    {
        type            wedge;
    }
}


// ************************************************************************* //
