/*--------------------------------*- C++ -*----------------------------------*\
  =========                 |
  \\      /  F ield         | OpenFOAM: The Open Source CFD Toolbox
   \\    /   O peration     | Website:  https://openfoam.org
    \\  /    A nd           | Version:  dev
     \\/     M anipulation  |
\*---------------------------------------------------------------------------*/
FoamFile
{
    version     2.0;
    format      ascii;
    class       volScalarField;
    location    "0.3";
    object      edc::YStar_C2H6;
}
// * * * * * * * * * * * * * * * * * * * * * * * * * * * * * * * * * * * * * //

dimensions      [0 0 0 0 0 0 0];

internalField   nonuniform List<scalar> 
1629
(
3.50260321619e-19
3.2784737963e-19
2.59315135073e-19
4.89314917705e-17
6.51408268577e-17
1.08763759186e-16
3.73751202853e-15
7.53772147579e-15
2.62399457685e-14
2.15800817396e-13
6.42116872798e-13
4.196947608e-12
9.4671312994e-12
3.02881684858e-11
1.64739504445e-10
3.98390824412e-10
1.39441293065e-09
6.8690510976e-09
1.33397312156e-08
4.779283351e-08
2.13310116038e-07
2.88001063647e-07
1.00981169286e-06
4.34500842078e-06
1.90396777588e-06
5.45373493133e-06
1.88945174554e-05
6.78966927702e-06
1.55084100679e-05
4.24251308974e-05
1.69699645267e-05
3.18070817338e-05
7.10224793504e-05
3.39287354522e-05
5.44930686635e-05
0.000103883898945
5.88900737318e-05
8.46532685844e-05
0.000144095890342
9.23286756548e-05
0.000122319820491
0.000189833202135
0.000133635645968
0.000166398593276
0.000238660431059
0.000181645345065
0.000215815858011
0.000290206729823
0.000235574416305
0.000270408755481
0.000345999560949
0.000295031138295
0.000330158273921
0.000406393539489
0.000359450764183
0.000394434100186
0.000470183519364
0.000427716345009
0.000461901445667
0.000535507667546
0.000498284815033
0.000530940785783
0.000600775116556
0.000569656142865
0.000600194721247
0.000665123317281
0.000640698542159
0.000668770661608
0.000728214623331
0.000710528057635
0.000735965372986
0.000789684455085
0.000778270794078
0.000800993157893
0.000848881563628
0.0008431123153
0.000863112205973
0.000905202141092
0.000904511414956
0.000921886820469
0.000958434969436
0.000962178619849
0.000977112788958
0.00100854058708
0.0010158596697
0.00102855986616
0.00105530898356
0.00106517346107
0.00107582625216
0.00109827621023
0.00110966599238
0.00111843876901
0.00113692794029
0.00114897977387
0.00115604876926
0.00117094341751
0.00118292709795
0.00118848962732
0.00120020705062
0.00121145031837
0.00121571059998
0.0012246812904
0.00123450968569
0.00123765045816
0.0012442501918
0.00125201681836
0.00125418574922
0.00125871769012
0.00126386249445
0.00126518474416
0.00126790745712
0.00127000194014
0.00127059190185
0.00127174573875
0.00127049811167
0.00127046391684
0.0012702764828
0.00126548300036
0.0012649191535
0.00126358913064
0.00125503155663
0.00125401009426
0.00125169098611
0.00123904215203
0.0012376114168
0.00123440021329
0.00121717047032
0.00121535093492
0.00121128721338
0.00118876450347
0.00118654992938
0.00118161448906
0.00115271425779
0.00115006942838
0.00114417928031
0.00110710891508
0.00110396497846
0.0010969645258
0.00104875881138
0.00104501809501
0.00103669217057
0.000972974291083
0.000968546621014
0.000958704912855
0.000874537839466
0.000869431812634
0.000858115319553
0.000751008811529
0.000745455208757
0.000733200427799
0.000607560776998
0.000602054728406
0.000589970095293
0.000458699682471
0.000453843318166
0.000443243628198
0.000322818667031
0.000319039487403
0.000310831691916
0.000213409967481
0.000210795178882
0.00020513594578
0.000134431041631
0.000132784501696
0.000129223857171
8.18867143218e-05
8.09049530456e-05
7.87813821094e-05
4.85044795409e-05
4.79290341405e-05
4.66810996644e-05
2.76345058636e-05
2.72958324358e-05
2.65610493444e-05
1.47092680851e-05
1.45126927136e-05
1.40861229554e-05
7.00798875012e-06
6.9009727886e-06
6.66924024212e-06
2.839734042e-06
2.78855527372e-06
2.67812912186e-06
9.29447510935e-07
9.0921597491e-07
8.65778645742e-07
2.28705848904e-07
2.22200286281e-07
2.08344709771e-07
2.20119218943e-11
6.34443135398e-10
2.24719291595e-08
6.71033413659e-07
1.53743487385e-05
5.67776465199e-05
0.000103130710893
0.00014440738146
0.000186308374673
0.00023960192351
0.000293738251389
0.000345211573573
0.000396999483464
0.000453786140394
0.000514701004468
0.000576737519692
0.000637496315158
0.00069608344826
0.000752725388181
0.000807797080114
0.000861194375213
0.000912324267859
0.000960762330849
0.00100660114582
0.00104995896365
0.00109057450543
0.00112786553435
0.00116127099834
0.00119052623879
0.00121559047516
0.00123643657063
0.00125285719533
0.00126455652063
0.0012713071855
0.00127302284856
0.00126973068487
0.00126148313234
0.00124822328986
0.00122969210261
0.00120538048225
0.00117446866014
0.00113566492449
0.00108685276544
0.00102468037914
0.000944550108509
0.0008419303412
0.000715814497039
0.000572987957608
0.000428490550454
0.000299502114563
0.000197368354502
0.000124346339085
7.58686932925e-05
4.49643870334e-05
2.55475023962e-05
1.34979266746e-05
6.35085677351e-06
2.52734809138e-06
8.06990589051e-07
1.8982496865e-07
1.49593816468e-16
7.09258361895e-16
1.68720033102e-15
2.37451598378e-15
1.93512769374e-15
1.03433672752e-15
3.96421893688e-16
1.15155897001e-16
2.65162362197e-17
4.96215832068e-18
7.64089846556e-19
9.766610432e-20
1.04382463911e-20
9.39458725465e-22
7.17827863745e-23
4.70541771967e-24
2.68647888468e-25
1.36128597104e-26
6.20294608929e-28
1.43650656085e-29
3.87339517813e-15
1.24698469469e-14
3.37235584496e-14
5.14306014936e-14
3.89956584762e-14
1.8514869169e-14
6.22830742217e-15
1.59205654431e-15
3.26321393322e-16
5.48465339362e-17
7.64999000621e-18
8.9379129421e-19
8.81852186417e-20
7.4071451159e-21
5.34683595561e-22
3.35829958073e-23
1.86956418633e-24
9.44184592863e-26
4.27456687185e-27
9.73824822336e-29
1.86664951406e-13
1.41385861175e-13
4.06263024999e-13
6.57794552234e-13
4.58805924761e-13
1.94946342171e-13
5.86037992143e-14
1.35326523691e-14
2.5348676483e-15
3.91908967143e-16
5.06446397238e-17
5.524550824e-18
5.13077659329e-19
4.09175176462e-20
2.83075871016e-21
1.72269841261e-22
9.41530635626e-24
4.76515280676e-25
2.16691621491e-26
4.65669433655e-28
1.13603916049e-11
2.06655376101e-12
4.59310657113e-12
6.77503142142e-12
4.27296523069e-12
1.66222821001e-12
4.60816358481e-13
9.96049747793e-14
1.75650666961e-14
2.57209014435e-15
3.16827897259e-16
3.3153583883e-17
2.97180565909e-18
2.30118172413e-19
1.55527366251e-20
9.30971919818e-22
5.04691642566e-23
2.56552162581e-24
1.19447194999e-25
3.13532895126e-27
8.25629563636e-10
8.88256801119e-11
7.63324162524e-11
7.76032676136e-11
4.09731617563e-11
1.43099167911e-11
3.63453169977e-12
7.31603576508e-13
1.2088246948e-13
1.6742450338e-14
1.96940308358e-15
1.98523282127e-16
1.7274595232e-17
1.30731849049e-18
8.68842446373e-20
5.14506490243e-21
2.77757749678e-22
1.41917230253e-23
6.76145627637e-25
2.21879415613e-26
4.84485459485e-08
8.65446420438e-09
2.15485560209e-09
1.01471602104e-09
3.9626978627e-10
1.20715790012e-10
2.79373256401e-11
5.17108525633e-12
7.96183328023e-13
1.04199659585e-13
1.1727026131e-14
1.14286419338e-15
9.69646008224e-17
7.20478711916e-18
4.72841862757e-19
2.7790744674e-20
1.49620165859e-21
7.66547775472e-23
3.681474906e-24
1.35774509645e-25
2.08948389712e-06
8.34275177321e-07
1.1618069617e-07
1.96003079974e-08
4.22353660595e-09
9.8446211631e-10
1.99350003938e-10
3.36507344423e-11
4.83566135867e-12
6.0143524789e-13
6.52376649523e-14
6.1930923187e-15
5.15917374418e-16
3.78649240171e-17
2.46571100338e-18
1.44286811098e-19
7.75211350525e-21
3.96605146535e-22
1.88742163848e-23
7.26999529516e-25
7.83404636838e-05
0
3.83190930345e-06
4.49968256811e-07
5.09605966425e-08
7.37789368651e-09
1.21855069071e-09
1.88031306376e-10
2.56929310747e-11
3.09836055746e-12
3.29702291017e-13
3.093553301e-14
2.55970516442e-15
1.87214336742e-16
1.21746663526e-17
7.12191828905e-19
3.822367522e-20
1.94568874866e-21
9.06277642142e-23
3.46253352208e-24
0.000240024056421
0.00239075712927
7.64324064394e-05
3.94793228363e-06
3.21431419754e-07
3.69239746323e-08
5.43257063186e-09
8.19139420132e-10
1.12580654823e-10
1.37308661479e-11
1.47753375953e-12
1.40017744552e-13
1.16869182945e-14
8.61349658529e-16
5.6379254126e-17
3.31347009678e-18
1.77989698083e-19
8.99689080615e-21
4.07353382279e-22
1.49384348717e-23
0.00032747223223
0.00153849582576
0.0001405950133
6.26146963533e-06
6.64215063709e-07
9.54741388671e-08
1.6213760255e-08
2.72174745576e-09
4.05111889677e-10
5.22588330896e-11
5.85249536747e-12
5.71288518407e-13
4.87904449147e-14
3.66212373716e-15
2.43152575675e-16
1.44341396516e-17
7.78239644736e-19
3.90626730555e-20
1.71512335008e-21
5.93599299604e-23
0.000362720498088
0.00103567751194
0.000196545616675
1.79541775508e-05
2.34175585994e-06
3.21387306749e-07
5.13817476796e-08
8.63926893006e-09
1.33240087432e-09
1.79271994159e-10
2.08905781987e-11
2.1124146874e-12
1.86000803144e-13
1.43267688312e-14
9.71471503697e-16
5.8562233579e-17
3.18093174389e-18
1.58833440703e-19
6.76975215264e-21
2.19749857046e-22
0.000408886300916
0.00113212836884
7.07454896791e-18
2.40026591703e-05
4.9362807916e-06
8.13274721607e-07
1.34847711168e-07
2.34321130619e-08
3.80817630415e-09
5.41121953348e-10
6.63150549068e-11
7.0155968633e-12
6.42860108427e-13
5.1249914279e-14
3.57558491854e-15
2.20235711356e-16
1.21100678616e-17
6.03715103932e-19
2.50678458576e-20
7.63493135858e-22
0.000498473747962
0.00153973097672
1.19477394954e-17
3.07515521534e-05
7.11119526131e-06
1.39815707902e-06
2.61089411846e-07
4.98619847766e-08
8.93251071167e-09
1.38703633165e-09
1.8324396562e-10
2.06527927913e-11
1.9969667617e-12
1.66602697897e-13
1.20669329394e-14
7.64995509345e-16
4.28408683688e-17
2.14321421867e-18
8.71746091898e-20
2.50344889527e-21
0.000559874893141
0.00137027458844
9.0576690202e-07
3.8683377324e-05
8.94655094122e-06
2.00652749926e-06
4.22045871184e-07
8.92527802382e-08
1.77966344762e-08
3.06560554978e-09
4.43545187362e-10
5.40153450127e-11
5.57811598525e-12
4.91999553751e-13
3.73156788023e-14
2.45281600943e-15
1.40801978428e-16
7.11118297395e-18
2.85242296945e-19
7.78544057859e-21
0.00060365639745
0.00125749058483
6.16062442253e-05
6.86508402395e-05
1.37625403524e-05
3.18094578481e-06
6.8779931252e-07
1.51174366886e-07
3.23972838495e-08
6.10806026611e-09
9.66172136699e-10
1.275891386e-10
1.41531059032e-11
1.32824576092e-12
1.06168016961e-13
7.2800582078e-15
4.30932832088e-16
2.21061697406e-17
8.8073786311e-19
2.30712683616e-20
0.000649135218803
0.00125276186081
0.00195896931501
2.31523709829e-18
1.98306965779e-05
4.93856433752e-06
1.10246513542e-06
2.46143941608e-07
5.5274747624e-08
1.12405064829e-08
1.93257224426e-09
2.76500045082e-10
3.30072878416e-11
3.30713065128e-12
2.79749159205e-13
2.01039288319e-14
1.23333527391e-15
6.46289210094e-17
2.57571572553e-18
6.54407199647e-20
0.000708017425884
0.00134034446587
0.00274972271849
0
2.92586099619e-05
6.81309086827e-06
1.57724722002e-06
3.67021944004e-07
8.70719186979e-08
1.91124034604e-08
3.57438781076e-09
5.5482634524e-10
7.14116057349e-11
7.65746019246e-12
6.87546753829e-13
5.19658241265e-14
3.31795634733e-15
1.78515986134e-16
7.16450736067e-18
1.78433937212e-19
0.000768247765162
0.00137089356209
0.0024462848437
1.10406350368e-08
3.70704264526e-05
8.49670493266e-06
2.05738491476e-06
5.0699831633e-07
1.28010829482e-07
3.03477818998e-08
6.17671717289e-09
1.04126576305e-09
1.44684124605e-10
1.6629542846e-11
1.58802635972e-12
1.26558852546e-13
8.43845935952e-15
4.6821844186e-16
1.90385080879e-17
4.69611301203e-19
0.000821472613741
0.00135330959925
0.00206513274285
1.05340269755e-06
4.85074395201e-05
1.08189084515e-05
2.72745206465e-06
6.99392750302e-07
1.84277551769e-07
4.64605138919e-08
1.01964810214e-08
1.85780071036e-09
2.78009483024e-10
3.42190719827e-11
3.47622553419e-12
2.92489625377e-13
2.04135044561e-14
1.17227421853e-15
4.85503831739e-17
1.19759039288e-18
0.000866306545821
0.00132025314356
0.00182206647953
1.37391617429e-05
7.16841352779e-05
1.63293890194e-05
4.21279247482e-06
1.05966205985e-06
2.75202392002e-07
7.11060759171e-08
1.64775387975e-08
3.20706690791e-09
5.13417476807e-10
6.74242065948e-11
7.27410691894e-12
6.46086118553e-13
4.72587723373e-14
2.81626233279e-15
1.19332850474e-16
2.96974699918e-18
0.000905674477003
0.00129606427344
0.00171615801701
0.000238075230466
0
1.95859532187e-05
5.94333054873e-06
1.5806814056e-06
4.10890012877e-07
1.07750620006e-07
2.60851705479e-08
5.3825292085e-09
9.17047614205e-10
1.28047534465e-10
1.46418860908e-11
1.37195509945e-12
1.05247142002e-13
6.52161695887e-15
2.83800182843e-16
7.18251513739e-18
0.000942872923503
0.00128601792964
0.00167513435213
0.00100103743641
0
2.69697305828e-05
7.6517746966e-06
2.13427214355e-06
5.75254860453e-07
1.56058962591e-07
3.97298456178e-08
8.71296476537e-09
1.58084883905e-09
2.34639160672e-10
2.84274224464e-11
2.81026258228e-12
2.26288442829e-13
1.46070677702e-14
6.55033425108e-16
1.69810440408e-17
0.000979051312288
0.00128188932398
0.00162402181853
0.0014991486681
9.63288057679e-09
3.35687609509e-05
9.39558165748e-06
2.73204948945e-06
7.69283358946e-07
2.17047643248e-07
5.81899787294e-08
1.35811054335e-08
2.62761936023e-09
4.14963157357e-10
5.33026792591e-11
5.56363703736e-12
4.70800707705e-13
3.17187122261e-14
1.47040250928e-15
3.93025016927e-17
0.00101397014854
0.00127886075968
0.00156598304098
0.0015717037854
3.74983789185e-07
4.46469584873e-05
1.25684336728e-05
3.73979253841e-06
1.06166309248e-06
3.02146379625e-07
8.37097398497e-08
2.0601955413e-08
4.23430259395e-09
7.10494832231e-10
9.67370901978e-11
1.06661390357e-11
9.49564100641e-13
6.68890547673e-14
3.2148910741e-15
8.91230137681e-17
0.00104696102085
0.0012757736004
0.00151247926801
0.00154630158745
3.37346316866e-06
3.0007573142e-16
1.30721093307e-05
4.74213653756e-06
1.43858584066e-06
4.16244074686e-07
1.18261298416e-07
3.04857833469e-08
6.63194392817e-09
1.18035918081e-09
1.70251531208e-10
1.98341635958e-11
1.85938351144e-12
1.371655781e-13
6.85318301217e-15
1.98067681687e-16
0.00107808910799
0.00127489228299
0.00147616775855
0.00154857066421
4.25468548504e-05
0
1.44883859435e-05
5.55262243873e-06
1.80761927209e-06
5.44450336861e-07
1.60474489719e-07
4.35088403121e-08
1.00412701387e-08
1.89865379392e-09
2.90452552341e-10
3.57911307755e-11
3.53761145287e-12
2.73740028325e-13
1.42522211449e-14
4.31409836405e-16
0.00110808418185
0.00127799692808
0.00145498886421
0.0015549640387
0.000184128023757
6.52892093472e-21
1.93744317961e-05
6.46772776047e-06
2.16672122491e-06
6.79408724599e-07
2.08836485895e-07
5.97294412478e-08
1.46631163158e-08
2.95302007735e-09
4.80119947201e-10
6.2685269725e-11
6.54269729913e-12
5.31948383915e-13
2.89267696744e-14
9.20746839429e-16
0.00113717497673
0.00128365869259
0.00143727539006
0.00152851179954
0.000398999644236
1.04852119283e-12
2.80642248764e-05
7.92733305513e-06
2.62345878461e-06
8.42124242109e-07
2.67032318084e-07
7.99865313775e-08
2.08169420488e-08
4.46137766672e-09
7.7111817639e-10
1.06750656109e-10
1.17775256987e-11
1.0074288397e-12
5.73262849799e-14
1.92531751085e-15
0.00116477695872
0.0012893404055
0.0014169310262
0.00147919371714
0.000592961759841
3.45461297881e-08
3.98188418663e-05
1.0750621713e-05
3.43326948617e-06
1.08797057284e-06
3.45624753682e-07
1.06419614061e-07
2.90673829636e-08
6.59649020482e-09
1.20925923681e-09
1.77334479867e-10
2.06788042752e-11
1.86194122543e-12
1.11013049324e-13
3.94447681205e-15
0.00119001165346
0.00129362531751
0.00139541148398
0.00143164249573
0.000732369702336
4.75006788634e-07
0
1.06216109857e-05
4.16896908726e-06
1.39165944703e-06
4.46499405324e-07
1.40327619894e-07
3.99606583879e-08
9.56466962385e-09
1.85557181506e-09
2.87920095229e-10
3.54691080786e-11
3.36219705027e-12
2.10213689131e-13
7.917977416e-15
0.00121226078396
0.00129631361017
0.00137508948075
0.00139320652778
0.000840764522912
3.85773804087e-06
0
1.08366263471e-05
4.71044719134e-06
1.68463393977e-06
5.57828376948e-07
1.80343099194e-07
5.36131968277e-08
1.35383346272e-08
2.78019882119e-09
4.56542337619e-10
5.94297315868e-11
5.93298102434e-12
3.8929249682e-13
1.55691562799e-14
0.00123142221849
0.00129802755609
0.00135780816561
0.00136446902894
0.000918429591555
1.7434527441e-05
8.76582011719e-21
1.36038920058e-05
5.33171320079e-06
1.98295780738e-06
6.78444018126e-07
2.25991540184e-07
7.01092902274e-08
1.86769882676e-08
4.06187866598e-09
7.06337473942e-10
9.72163460249e-11
1.02275356676e-11
7.0483730485e-13
2.9971851681e-14
0.00124762438164
0.00129922886309
0.00134360030408
0.00134136484133
0.000960779808231
3.9711682671e-05
0
1.89437962397e-05
6.39806235098e-06
2.38132460616e-06
8.27509502129e-07
2.80668614721e-07
9.0142813727e-08
2.52289581117e-08
5.80038486303e-09
1.0674593389e-09
1.55328834302e-10
1.72248692578e-11
1.24746733304e-12
5.64633175248e-14
0.00126083010794
0.00129953679339
0.00133040941977
0.00131731410159
0.000970597571126
6.84732715218e-05
6.28202310085e-17
5.47540136984e-13
5.9079105707e-06
2.7004215214e-06
9.9394540329e-07
3.44739651808e-07
1.14129057237e-07
3.34332963416e-08
8.10911789717e-09
1.57767985511e-09
2.42593976564e-10
2.83536910288e-11
2.15847277413e-12
1.04074894974e-13
0.00127058174947
0.00129760090728
0.00131471974371
0.00128532874135
0.000952629625747
0.000110050936829
4.69389086108e-09
1.52694368795e-23
5.24839006163e-06
2.89137954178e-06
1.14967740001e-06
4.12683698495e-07
1.41197548086e-07
4.32893273214e-08
1.10758107361e-08
2.27831752414e-09
3.70247143743e-10
4.56156513436e-11
3.65122325271e-12
1.87678873696e-13
0.00127636141995
0.00129254564172
0.00129606578359
0.00125017185482
0.000928911687771
0.000151122411466
1.73656153027e-07
0
4.6965474145e-06
2.98981687151e-06
1.28565012208e-06
4.80527004621e-07
1.70290105767e-07
5.46536367378e-08
1.47565521017e-08
3.21137299866e-09
5.51878583917e-10
7.17069988998e-11
6.03760715138e-12
3.31103496947e-13
0.00127786172093
0.00128417985311
0.00127521446318
0.00121495104676
0.000901898817398
0.000182922371154
6.70540813798e-07
6.07709166242e-20
4.64080814428e-06
3.05781336542e-06
1.41170187189e-06
5.49829766442e-07
2.01487119705e-07
6.75424460172e-08
1.92228792969e-08
4.42457792957e-09
8.04143105408e-10
1.10209902012e-10
9.76393891644e-12
5.71685200814e-13
0.00127498801674
0.00127255158873
0.00125254294311
0.00117942401553
0.000868257023226
0.000201989195365
1.52979292257e-06
3.9546956768e-23
3.35232574672e-06
3.00809114784e-06
1.52868870755e-06
6.23257703484e-07
2.35484522397e-07
8.21201913821e-08
2.45747114036e-08
5.97513090822e-09
1.14772329111e-09
1.6585716744e-10
1.54601221535e-11
9.66914995563e-13
0.00126774040426
0.00125763275053
0.00122778677788
0.00114203844581
0.000826713038456
0.000209404568705
2.72492107406e-06
1.84247507575e-23
6.21348258995e-11
2.66925841671e-06
1.60512871978e-06
6.96358467254e-07
2.71647661654e-07
9.82791743878e-08
3.08591701517e-08
7.9172467858e-09
1.60631949282e-09
2.44658735101e-10
2.39914103754e-11
1.60340724086e-12
0.00125608136857
0.00123918999811
0.00120020553863
0.00110102224119
0.000777976051039
0.0002087334342
4.42427313311e-06
1.9579145039e-22
0
2.27948577788e-06
1.63397719192e-06
7.61852067751e-07
3.07912201046e-07
1.15458630309e-07
3.79958722449e-08
1.02821816845e-08
2.20341734664e-09
3.5371880851e-10
3.64939081072e-11
2.60772756859e-12
0.00123980981353
0.00121670274909
0.00116863630521
0.00105439765983
0.000722201093804
0.000202283206139
6.52404117157e-06
3.48001449627e-21
0
1.8457204108e-06
1.61696909131e-06
8.16623292332e-07
3.4287332418e-07
1.33099661821e-07
4.58435388297e-08
1.30796430994e-08
2.96075132857e-09
5.01046637498e-10
5.44039513208e-11
4.15954677414e-12
0.00121849670301
0.00118935805099
0.00113161313183
0.0010002658638
0.000659776056604
0.000190714487973
8.70884024622e-06
1.91796518479e-14
1.86843387197e-26
1.32723314455e-06
1.5505963597e-06
8.59829671092e-07
3.76329792218e-07
1.50972431214e-07
5.43016042963e-08
1.6316561583e-08
3.90024959418e-09
6.95760096204e-10
7.95204250011e-11
6.50989232687e-12
0.00119145053211
0.00115604924475
0.0010874334685
0.000936990196985
0.000591725827193
0.000174968110938
1.06220199513e-05
6.04031129514e-11
0
5.44985780127e-07
1.41226405421e-06
8.88256929236e-07
4.08231583015e-07
1.69014818239e-07
6.33032251312e-08
2.0000396072e-08
5.04487790127e-09
9.48323241725e-10
1.14090945943e-10
1.00060407905e-11
0.00115765986426
0.00111534967122
0.00103424791598
0.000863578044513
0.000520053528964
0.000156239086555
1.18386608327e-05
3.15852071855e-09
0
8.54536319309e-09
1.22743626065e-06
8.98770790463e-07
4.37785491704e-07
1.86994920245e-07
7.27239886067e-08
2.41169602134e-08
6.41410090025e-09
1.269995549e-09
1.60833897081e-10
1.51184508919e-11
0.00111562818895
0.00106536910947
0.000970043442072
0.000779825531301
0.000447199937074
0.000135755162453
1.20957256516e-05
1.65936155119e-08
1.93544636557e-23
5.4078359584e-12
1.02379804106e-06
8.89971908356e-07
4.63535346767e-07
2.04413556516e-07
8.2332974864e-08
2.86086094877e-08
8.01681205172e-09
1.671450474e-09
2.22839286932e-10
2.2462902792e-11
0.00106302373471
0.00100346385348
0.000892547763457
0.000686302098193
0.000375320994025
0.000114716380102
1.14888460712e-05
3.54773535049e-08
0
1.69669690274e-14
7.86136398235e-07
8.59089942072e-07
4.84150298932e-07
2.20811434608e-07
9.18783732532e-08
3.3386471272e-08
9.84979978365e-09
2.16176719884e-09
3.03444455367e-10
3.28203609804e-11
0.000996369481548
0.00092625298716
0.00079987514563
0.000585233391923
0.000306682176796
9.42815888258e-05
1.01679661769e-05
5.19413610136e-08
1.60866144418e-19
0
5.25052454746e-07
8.0370734805e-07
4.9856503514e-07
2.35965730187e-07
1.01186085209e-07
3.8360836871e-08
1.19025950731e-08
2.74858953182e-09
4.06224549363e-10
4.71656774397e-11
0.00091129597192
0.000830496528944
0.000692065847675
0.000481077115231
0.000243474280929
7.52161585911e-05
8.53317670943e-06
6.00585192519e-08
5.83967540997e-20
0
2.71736000221e-07
7.23930369998e-07
5.05574484988e-07
2.49765426203e-07
1.10157655677e-07
4.3451224406e-08
1.41604129802e-08
3.43839609094e-09
5.35029308731e-10
6.67029602927e-11
0.000804207114856
0.000715316359212
0.000572993634221
0.000379986775288
0.000187489090659
5.81332727407e-05
6.77477602586e-06
5.71898662529e-08
1.49725406524e-19
1.39334117211e-18
7.58239406301e-08
6.24782574587e-07
5.03793166533e-07
2.62017037411e-07
1.18712778952e-07
4.85747781829e-08
1.66011953343e-08
4.23559372339e-09
6.9384262833e-10
9.28819363793e-11
0.000675796456251
0.000585209363331
0.000451027178712
0.000288149589847
0.000139892473669
4.34311738648e-05
5.07467211782e-06
4.48737478177e-08
4.73104831935e-20
2.11396301547e-19
7.24732022959e-09
5.17562864981e-07
4.92344483081e-07
2.72404384977e-07
1.26760684027e-07
5.36383824863e-08
1.91916661141e-08
5.14086056537e-09
8.86410409508e-10
1.27371193684e-10
0.0005345124973
0.000451181591303
0.000336832502947
0.000209990982693
0.000101060489358
3.12635365654e-05
3.57065666763e-06
2.75816707616e-08
0
1.06191396622e-19
2.50470922253e-10
4.06852581551e-07
4.70502356006e-07
2.80517725607e-07
1.34224036607e-07
5.85507698587e-08
2.18886660781e-08
6.1502691563e-09
1.11584208784e-09
1.71993192825e-10
0.000395620549553
0.000327294422386
0.000239274912591
0.000147385484567
7.06197673586e-05
2.15594247298e-05
2.33742564635e-06
1.07344131068e-08
1.35703553859e-22
9.74554498296e-20
7.43720305408e-12
2.97573821866e-07
4.37707655944e-07
2.85810505739e-07
1.41057059746e-07
6.32398495114e-08
2.4644181872e-08
7.25550286849e-09
1.3843302804e-09
2.28639070413e-10
0.000274627563907
0.000224527668034
0.000162641271834
9.98541019097e-05
4.76154391654e-05
1.40877361083e-05
1.39269308584e-06
1.07264276629e-09
3.94237128659e-24
0
5.37805604043e-13
1.98809000849e-07
3.94389356163e-07
2.87512476394e-07
1.47219241003e-07
6.76562168074e-08
2.74080569783e-08
8.44389259164e-09
1.69287087617e-09
2.99174664542e-10
0.000180478400337
0.000147054987092
0.00010646912216
6.5366230148e-05
3.07727146677e-05
8.56738084241e-06
7.46207606116e-07
8.8462590901e-12
9.34946773011e-24
4.20110739894e-20
7.96221978541e-14
1.20136047332e-07
3.42931554503e-07
2.84706871897e-07
1.52660258328e-07
7.17747792351e-08
3.0129866405e-08
9.69814394463e-09
2.04093516991e-09
3.85346408171e-10
0.000113772559001
9.28967590125e-05
6.74307133869e-05
4.12384377816e-05
1.88594406921e-05
4.77758412184e-06
3.72826399214e-07
2.71806240012e-15
0
3.93083107699e-21
2.29461264331e-14
6.56932367444e-08
2.87258186483e-07
2.76484817119e-07
1.57291567211e-07
7.55927412973e-08
3.27601294754e-08
1.09958957852e-08
2.42621486747e-09
4.88742249186e-10
6.95336054401e-05
5.69128413197e-05
4.12570993613e-05
2.48427617816e-05
1.07761083379e-05
2.40687859765e-06
1.71884393317e-07
0
2.69340084994e-22
2.62548728094e-22
1.50175896488e-14
3.37624908393e-08
2.31741602109e-07
2.62184231781e-07
1.60865601265e-07
7.9097415344e-08
3.52434914274e-08
1.23071615009e-08
2.84412120079e-09
6.10776473907e-10
4.12091785534e-05
3.36390961731e-05
2.40995374396e-05
1.40221422524e-05
5.60024798306e-06
1.07941901275e-06
5.95973827292e-08
0
4.36081977227e-23
0
9.64671092269e-15
1.68080164511e-08
1.81496859452e-07
2.41996956298e-07
1.62932814276e-07
8.22501525853e-08
3.75165719837e-08
1.35925698566e-08
3.28753326084e-09
7.52749570823e-10
2.33226009031e-05
1.88091890544e-05
1.31094282529e-05
7.190054648e-06
2.55430488314e-06
4.21051210634e-07
4.26939402522e-09
0
5.47634257546e-25
2.48585886312e-22
7.08760900691e-15
8.40609135619e-09
1.3960704582e-07
2.17030581425e-07
1.62884882041e-07
8.4993944046e-08
3.95157171727e-08
1.48054154281e-08
3.74739802133e-09
9.15924797376e-10
1.22085161442e-05
9.60659305622e-06
6.38187016334e-06
3.19497674703e-06
9.70974826331e-07
1.35184396455e-07
1.76319365133e-14
6.74005386799e-20
4.22056013501e-24
1.42179195755e-20
6.33399985777e-15
4.45567422092e-09
1.06925887616e-07
1.89107281788e-07
1.60052841432e-07
8.72369911878e-08
4.11791665031e-08
1.58936291402e-08
4.21347026752e-09
1.10144452657e-09
5.65803030829e-06
4.28643303612e-06
2.65824789625e-06
1.18351779398e-06
3.0859781354e-07
2.07375416707e-08
5.06017300478e-24
0
0
2.41722820913e-21
6.02342227182e-15
2.6186776579e-09
8.19419557472e-08
1.60922671754e-07
1.54002965076e-07
8.88596718795e-08
4.24554784197e-08
1.68030297734e-08
4.67468366759e-09
1.30981218456e-09
2.20363031786e-06
1.58290393997e-06
8.95080259137e-07
3.46932811823e-07
6.85420949333e-08
1.83875119106e-13
7.33289594349e-20
0
5.56113777888e-21
1.2440288907e-20
8.54692953206e-15
1.74688109404e-09
6.29655745873e-08
1.34759384596e-07
1.44698888562e-07
8.97332672903e-08
4.33166482058e-08
1.74826253552e-08
5.11907647766e-09
1.53977236779e-09
6.83400187985e-07
4.57184542493e-07
2.29006163665e-07
6.71528487525e-08
1.97289924847e-10
1.85191141809e-30
4.67966828613e-23
7.25228652267e-18
0
6.11637271703e-20
1.59458479198e-14
1.31612394584e-09
4.86367961839e-08
1.11927501171e-07
1.32493393972e-07
8.96915250776e-08
4.37557948028e-08
1.78822949816e-08
5.52975715082e-09
1.78659879239e-09
1.52032159721e-07
8.66147566226e-08
2.65929770021e-08
5.53585092374e-11
0
2.0831787588e-21
7.76963166519e-22
0
5.25336322226e-20
8.09141302737e-19
2.28679547307e-14
9.38268893447e-10
3.70048390473e-08
9.21731418024e-08
1.18250525167e-07
8.84833366717e-08
4.36270421677e-08
1.79213315553e-08
5.8751130585e-09
2.03785717044e-09
2.07398434379e-26
4.04960507458e-26
2.62833082163e-26
4.6113289097e-26
7.45778965442e-26
9.10776866669e-26
2.93382583373e-25
2.58087222134e-25
1.11098362032e-24
7.1277542911e-25
3.91625616857e-24
1.98157201114e-24
1.30255450191e-23
5.51015030808e-24
4.13000657829e-23
1.52463001941e-23
1.25720334574e-22
4.18561323326e-23
3.69575149833e-22
1.13877760283e-22
1.05391263237e-21
3.06833920955e-22
2.92468112841e-21
8.18073950316e-22
7.9163127797e-21
2.15650452343e-21
2.09404231025e-20
5.61760904354e-21
5.42331429936e-20
1.44593864247e-20
1.37764211273e-19
3.67840429556e-20
3.43821441374e-19
9.25332695501e-20
8.44264585037e-19
2.30302852432e-19
2.0417191968e-18
5.67314136535e-19
4.86405883268e-18
1.38357818035e-18
1.14137461969e-17
3.33709582197e-18
2.63686052336e-17
7.94677959602e-18
5.99298155009e-17
1.86603784369e-17
1.33880694184e-16
4.31552356069e-17
2.93725788777e-16
9.81887434969e-17
6.32277982491e-16
2.19660725393e-16
1.33463867812e-15
4.82361014407e-16
2.76057932437e-15
1.03837375094e-15
5.59087851025e-15
2.18879912604e-15
1.10796284793e-14
4.5137132996e-15
2.1477506441e-14
9.10086420724e-15
4.07187916347e-14
1.79357674717e-14
7.55028117781e-14
3.45470424902e-14
1.36973545699e-13
6.50508209893e-14
2.4329988792e-13
1.19812210318e-13
4.23479325533e-13
2.16009771537e-13
7.22611513676e-13
3.81420105486e-13
1.20904018574e-12
6.59823311283e-13
1.98432284106e-12
1.11869909754e-12
3.19709425239e-12
1.86010553414e-12
5.06067584763e-12
3.03530247163e-12
7.87307772996e-12
4.86296052317e-12
1.20393293776e-11
7.65079487607e-12
1.80983762581e-11
1.18212529438e-11
2.67541615656e-11
1.79409903713e-11
3.89027952705e-11
2.67498602391e-11
5.56440566962e-11
3.91813810556e-11
7.82724150476e-11
5.63687768818e-11
1.08250588835e-10
7.96360938862e-11
1.47174831556e-10
1.10481525833e-10
1.96736733021e-10
1.50555253711e-10
2.5870442959e-10
2.01643723747e-10
3.34901438293e-10
2.65636710855e-10
4.27204120706e-10
3.44496385387e-10
5.37441020047e-10
4.40090850771e-10
6.66967841343e-10
5.53625228647e-10
8.16134218854e-10
6.85147390222e-10
9.83113987971e-10
8.32309202654e-10
1.16240197709e-09
9.88340852766e-10
1.35871755257e-09
1.16919369631e-09
)
;

boundaryField
{
    inletfuel
    {
        type            calculated;
        value           uniform 0;
    }
    inletair
    {
        type            calculated;
        value           uniform 0;
    }
    outlet
    {
        type            calculated;
        value           uniform 0;
    }
    axis
    {
        type            empty;
    }
    leftside
    {
        type            calculated;
        value           uniform 0;
    }
    burnerwall
    {
        type            calculated;
        value           uniform 0;
    }
    front
    {
        type            wedge;
    }
    back
    {
        type            wedge;
    }
}


// ************************************************************************* //
