/*--------------------------------*- C++ -*----------------------------------*\
  =========                 |
  \\      /  F ield         | OpenFOAM: The Open Source CFD Toolbox
   \\    /   O peration     | Website:  https://openfoam.org
    \\  /    A nd           | Version:  dev
     \\/     M anipulation  |
\*---------------------------------------------------------------------------*/
FoamFile
{
    version     2.0;
    format      ascii;
    class       volScalarField;
    location    "0.3";
    object      edc::R_HCO;
}
// * * * * * * * * * * * * * * * * * * * * * * * * * * * * * * * * * * * * * //

dimensions      [1 -3 -1 0 0 0 0];

internalField   nonuniform List<scalar> 
1629
(
-3.17095814637e-28
-3.59390748791e-28
-4.25995682936e-28
-5.62647996204e-24
-1.29494536759e-23
-5.85593909716e-23
-2.8728587411e-20
-1.41885195264e-19
-1.57284223225e-18
-1.84121056365e-17
-7.01752610665e-17
-5.2370027408e-16
-1.66420035793e-15
-6.89866408878e-15
-4.08772874224e-14
-1.21237486343e-13
-5.48337461407e-13
-9.69818302794e-12
-1.65274891835e-11
-2.37068318593e-10
-3.84919119195e-09
-2.38309487453e-09
-2.85168524293e-08
-3.70641266051e-07
-9.79708206031e-09
-7.15903469813e-08
-4.95899273291e-07
-2.20840583812e-08
-9.39740425363e-08
-3.47050701305e-07
-3.4403535616e-08
-8.86891667872e-08
-1.86374172813e-07
-4.40049158092e-08
-8.4448421991e-08
-1.77877236147e-07
-5.65443912059e-08
-1.06341899735e-07
-2.76744215247e-07
-6.96844277844e-08
-1.29221417902e-07
-3.58124683587e-07
-9.06181007935e-08
-1.76341886374e-07
-5.51712472426e-07
-1.0765429985e-07
-1.9144276203e-07
-5.27358018901e-07
-1.15465914828e-07
-1.78716978028e-07
-3.99084245547e-07
-1.14604025759e-07
-1.5663929384e-07
-2.87158348478e-07
-1.07603299832e-07
-1.34159287206e-07
-2.15074825681e-07
-9.79586529338e-08
-1.16138522979e-07
-1.77751513535e-07
-8.97539884186e-08
-1.07291521041e-07
-1.74400961057e-07
-8.24421220404e-08
-1.00421860853e-07
-1.69924367713e-07
-7.49154336259e-08
-9.19604242149e-08
-1.53540468009e-07
-6.72056930089e-08
-8.24592768994e-08
-1.33931818357e-07
-6.02908491588e-08
-7.40585177121e-08
-1.17397959705e-07
-5.53692027151e-08
-6.83371731207e-08
-1.06875534732e-07
-5.29772348469e-08
-6.58647562789e-08
-1.01947954497e-07
-5.30862806362e-08
-6.59993256197e-08
-1.00678340286e-07
-5.49218283267e-08
-6.77636080086e-08
-1.01642737287e-07
-5.78289314132e-08
-7.06644136977e-08
-1.04306730694e-07
-6.16597401364e-08
-7.46458254704e-08
-1.08334544672e-07
-6.67584354353e-08
-8.00391912932e-08
-1.14026054212e-07
-7.38035516456e-08
-8.75661132376e-08
-1.2228203379e-07
-8.32669387045e-08
-9.76585351444e-08
-1.33485527074e-07
-9.52548873566e-08
-1.10433139721e-07
-1.47448917639e-07
-1.09945773928e-07
-1.25780569837e-07
-1.63781137305e-07
-1.27346044743e-07
-1.43705243873e-07
-1.82339953944e-07
-1.47356640285e-07
-1.63937878926e-07
-2.02563651871e-07
-1.69183026546e-07
-1.85743874544e-07
-2.23802698184e-07
-1.92107698031e-07
-2.08445890387e-07
-2.45665303041e-07
-2.16320330632e-07
-2.32395389935e-07
-2.69487683026e-07
-2.42984729707e-07
-2.59406483518e-07
-2.97362287693e-07
-2.7347472567e-07
-2.90636402442e-07
-3.30356603222e-07
-3.08044682683e-07
-3.26214583843e-07
-3.68169909616e-07
-3.45888459591e-07
-3.65043465559e-07
-4.08933423406e-07
-3.8490308349e-07
-4.04485684053e-07
-4.48811253324e-07
-4.21227497695e-07
-4.40029954543e-07
-4.81880502953e-07
-4.48870163678e-07
-4.65064035769e-07
-5.00263717732e-07
-4.59099920244e-07
-4.70662396249e-07
-4.94957893919e-07
-4.43912365878e-07
-4.49480253069e-07
-4.60226213091e-07
-4.06677607724e-07
-4.06596821766e-07
-4.05109302249e-07
-3.71361656326e-07
-3.68112125369e-07
-3.60259328929e-07
-3.68777212488e-07
-3.656212038e-07
-3.58641445555e-07
-4.03269173331e-07
-4.02232640254e-07
-4.00308647063e-07
-4.44902775175e-07
-4.46375746833e-07
-4.50140668612e-07
-4.65147830801e-07
-4.69067402912e-07
-4.78206219735e-07
-4.66072905933e-07
-4.7236591611e-07
-4.86718240305e-07
-4.6923096972e-07
-4.77606926325e-07
-4.96382667983e-07
-4.95039796771e-07
-5.04644877888e-07
-5.25845220243e-07
-5.48807055217e-07
-5.57771665358e-07
-5.77053452517e-07
-5.89724947702e-07
-5.93263592345e-07
-5.99747511076e-07
-4.8847034775e-07
-4.77859677924e-07
-4.52377261853e-07
-5.79112566318e-08
-2.93057672839e-08
3.47376640822e-08
-2.51492673897e-15
-1.70074427209e-13
-1.38238424091e-10
-3.21648215387e-08
-1.14630008839e-06
-1.62844094922e-06
-9.21470410776e-07
-3.83547896206e-07
-4.98589249086e-07
-8.75932823173e-07
-1.1659932409e-06
-2.1988643609e-06
-1.76954300764e-06
-1.05661037522e-06
-6.32781613381e-07
-4.27758536282e-07
-3.52637244859e-07
-3.87455038866e-07
-3.79536428493e-07
-3.23630885729e-07
-2.6315810169e-07
-2.17294984826e-07
-1.89394037293e-07
-1.7534914379e-07
-1.69212985206e-07
-1.67926700778e-07
-1.69350824402e-07
-1.72188797116e-07
-1.76896876603e-07
-1.84742531571e-07
-1.96202714701e-07
-2.10488079759e-07
-2.26824608876e-07
-2.44668159967e-07
-2.63516382638e-07
-2.82708270347e-07
-3.03070570092e-07
-3.26900153918e-07
-3.5633546945e-07
-3.92046457631e-07
-4.32946820148e-07
-4.75871838211e-07
-5.1508964554e-07
-5.42696899063e-07
-5.49530546065e-07
-5.26860553088e-07
-4.71937107921e-07
-3.99736083136e-07
-3.47164126676e-07
-3.48246797658e-07
-3.97930564663e-07
-4.56291715174e-07
-4.92212441187e-07
-5.08157330889e-07
-5.23842469135e-07
-5.56065717782e-07
-6.03292971151e-07
-6.05672624615e-07
-4.10769030277e-07
1.28054655165e-07
-2.22098210439e-19
-3.58491069084e-19
-6.23948610687e-19
-9.69744347235e-19
-8.50255648532e-19
-4.55997771961e-19
-1.66738911555e-19
-4.46895129397e-20
-9.28271673484e-21
-1.54200937558e-21
-2.08252917504e-22
-2.31301362489e-23
-2.13209286513e-24
-1.6447179687e-25
-1.07125176534e-26
-5.95516199456e-28
-2.8681823245e-29
-1.21895922997e-30
-4.76795458267e-32
-3.27078343611e-33
-4.46890663188e-18
-7.65169484584e-18
-1.42777349393e-17
-2.39882796817e-17
-1.96271610704e-17
-9.31366611162e-18
-2.96229089712e-18
-6.9066783469e-19
-1.26135714606e-19
-1.85850551857e-20
-2.24550485576e-21
-2.25194592945e-22
-1.89340438261e-23
-1.34727534127e-24
-8.19741892053e-26
-4.31999127416e-27
-2.00872469656e-28
-8.43336348567e-30
-3.32559425827e-31
-2.38942064769e-32
-6.79528549669e-17
-1.02680215198e-16
-2.01447438535e-16
-3.46349664251e-16
-2.57494529367e-16
-1.08263394045e-16
-3.03716160752e-17
-6.30628488753e-18
-1.03803021205e-18
-1.38862819199e-19
-1.53550186792e-20
-1.42127630984e-21
-1.1126888432e-22
-7.44068567511e-24
-4.29744113686e-25
-2.17476824361e-26
-9.84731298769e-28
-4.11625958532e-29
-1.64811593008e-30
-1.18629316039e-31
-1.54481509381e-15
-5.22302694765e-15
-4.37269701543e-15
-4.32566434529e-15
-2.63408881537e-15
-9.88213973169e-16
-2.51411350905e-16
-4.81595676512e-17
-7.36792329244e-18
-9.23054116944e-19
-9.63284165861e-20
-8.47781132208e-21
-6.35554808523e-22
-4.09762368029e-23
-2.29759128149e-24
-1.13746692106e-25
-5.08631953664e-27
-2.13083120003e-28
-8.88261042766e-30
-7.55972017176e-31
-2.62675617443e-13
-2.55545567346e-13
-1.53396409694e-13
-6.55887652591e-14
-2.8709924492e-14
-9.17844992964e-15
-2.08089412716e-15
-3.63499141311e-16
-5.11927649516e-17
-5.97658039263e-18
-5.88273454336e-19
-4.93681458697e-20
-3.56303085456e-21
-2.23031108968e-22
-1.22344795385e-23
-5.96980687244e-25
-2.65260140536e-26
-1.11764833647e-27
-4.87605338264e-29
-5.24763113351e-30
-3.5092784349e-10
-2.3290359485e-10
-1.63740243883e-11
-1.35656817597e-12
-3.3905402129e-13
-8.4578631197e-14
-1.66495628114e-14
-2.5938458868e-15
-3.3255043885e-16
-3.60247457554e-17
-3.34562120907e-18
-2.68623081564e-19
-1.87612167573e-20
-1.14707701592e-21
-6.19378865363e-23
-2.99514457004e-24
-1.32754889778e-25
-5.62603005693e-27
-2.54145242051e-28
-3.02051044593e-29
-1.09249893544e-07
-1.00968990341e-07
-4.07041777811e-09
-1.6301556461e-10
-6.42788591634e-12
-7.91606657099e-13
-1.20885142863e-13
-1.63566936396e-14
-1.90052842416e-15
-1.91934899087e-16
-1.69718589407e-17
-1.3179264961e-18
-9.00551080801e-20
-5.43306300078e-21
-2.9133237839e-22
-1.40587956095e-23
-6.2414314183e-25
-2.65734583365e-26
-1.22637949079e-27
-1.47900785292e-28
2.95546590491e-06
6.24310077054e-06
-9.84998505273e-07
-2.56209940174e-08
-2.85766974511e-10
-7.53643905478e-12
-6.91804772244e-13
-7.92641120825e-14
-8.55212668106e-15
-8.32513579486e-16
-7.23654787738e-17
-5.58599466022e-18
-3.81925010565e-19
-2.31476596381e-20
-1.24989016121e-21
-6.08025986066e-23
-2.71973165729e-24
-1.16363705875e-25
-5.43786377414e-27
-6.27335988327e-28
-1.00519438834e-05
3.44572248496e-05
-1.56646938116e-06
-2.33886706169e-08
-5.41744923218e-10
-1.58420172432e-11
-1.54244539722e-12
-2.03854037611e-13
-2.48553132564e-14
-2.63833553182e-15
-2.43925229438e-16
-1.97190208307e-17
-1.39828264969e-18
-8.73271268687e-20
-4.83551625704e-21
-2.40155856311e-22
-1.09067571399e-23
-4.70107415108e-25
-2.21547163006e-26
-2.35380963154e-27
-4.21783046149e-06
-1.78437953263e-05
-5.86270245564e-07
-8.4268723654e-09
-4.51786086282e-10
-2.10850912147e-11
-2.40229699905e-12
-3.77578863854e-13
-5.44150797598e-14
-6.5974747335e-15
-6.75624595161e-16
-5.91311933568e-17
-4.46473252818e-18
-2.93266731408e-19
-1.69135429763e-20
-8.67318703375e-22
-4.02836509932e-23
-1.75523520551e-24
-8.33252373408e-26
-7.98803953473e-27
-1.3667933573e-06
-5.26738473273e-06
-1.08218022743e-07
-1.18542156721e-08
-6.35693053031e-10
-3.34139497398e-11
-3.78465932677e-12
-6.50755147267e-13
-1.07205612794e-13
-1.46925145959e-14
-1.66742222612e-15
-1.58940167345e-16
-1.28846475986e-17
-8.978432658e-19
-5.435661903e-20
-2.89634801424e-21
-1.38192597232e-22
-6.1026508769e-24
-2.91763664933e-25
-2.49986156005e-26
-1.82172695227e-06
7.56834263463e-06
1.36170692074e-06
-3.62790434431e-07
-1.22114680449e-08
-2.85671193102e-10
-1.21409610568e-11
-1.47677476538e-12
-2.32492134834e-13
-3.31742665915e-14
-4.00461601501e-15
-4.07307404926e-16
-3.51136123532e-17
-2.58620090544e-18
-1.64234370785e-19
-9.0972430622e-21
-4.46191923092e-22
-1.99839158255e-23
-9.61562731186e-25
-7.33852872586e-26
-4.02950069997e-06
7.73194736221e-06
5.49500056087e-06
-2.017143387e-06
-4.9979311118e-08
-1.32145009541e-09
-3.54646083594e-11
-3.43578167776e-12
-5.19116230094e-13
-7.62129137142e-14
-9.61957228457e-15
-1.02775209927e-15
-9.31075511624e-17
-7.18871642973e-18
-4.76256735935e-19
-2.73276363842e-20
-1.37473779237e-21
-6.23831887698e-23
-3.01723842256e-24
-2.05260861722e-25
-6.1635528861e-06
-7.35718983159e-05
0.00019212939886
-1.86578439443e-05
-2.56420759587e-07
-6.04362988965e-09
-1.13287295566e-10
-8.68801008409e-12
-1.21297819383e-12
-1.79675670335e-13
-2.33996691936e-14
-2.59292212888e-15
-2.44061014509e-16
-1.95718585075e-17
-1.34317853708e-18
-7.94240603444e-20
-4.08357933336e-21
-1.87435443075e-22
-9.10219962163e-24
-5.54230867605e-25
-1.36224025743e-05
-0.000249781028402
0.000727198391539
-6.68273784823e-05
-1.16825885159e-06
-2.97430954504e-08
-5.44673029679e-10
-2.75851686835e-11
-3.14799102137e-12
-4.41721139607e-13
-5.76399421182e-14
-6.51840615167e-15
-6.30796907557e-16
-5.2148638483e-17
-3.68708445757e-18
-2.23798422264e-19
-1.17313401331e-20
-5.44324735468e-22
-2.65448024145e-23
-1.45692312527e-24
-8.8172907365e-06
-0.000107163209416
-0.00021449160831
-2.40980813588e-05
-1.54796018991e-06
-5.21570400081e-08
-1.52086036277e-09
-6.2500236209e-11
-6.65683940747e-12
-9.50457394296e-13
-1.29583979836e-13
-1.53154637322e-14
-1.54375953581e-15
-1.325026345e-16
-9.68922056651e-18
-6.05102764258e-19
-3.24007310097e-20
-1.52375969005e-21
-7.48267499089e-23
-3.73795149298e-24
-4.23318792489e-06
-3.26475594109e-05
-0.000117722907404
-7.16779687764e-06
-1.18170986906e-06
-3.95687866818e-08
-1.9350844066e-09
-8.78911079835e-11
-1.02228827122e-11
-1.62423848126e-12
-2.46059827171e-13
-3.17148193317e-14
-3.42588217972e-15
-3.11114287119e-16
-2.3830824183e-17
-1.5449893171e-18
-8.50913432443e-20
-4.08223508568e-21
-2.02973875044e-22
-9.33705633626e-24
-2.13582233065e-06
-1.2258059239e-05
-4.46149377488e-05
5.93244838717e-05
-6.44580425937e-06
-9.77487429565e-08
-2.91734321621e-09
-1.11012028163e-10
-1.3533846857e-11
-2.37032356611e-12
-4.04388055291e-13
-5.79682728582e-14
-6.83701361547e-15
-6.67289137969e-16
-5.42217159976e-17
-3.68684702631e-18
-2.10691781684e-19
-1.03971675499e-20
-5.27037532971e-22
-2.26074978633e-23
-1.31394342331e-06
-7.23905547446e-06
-5.11091189955e-05
0.000100519011665
-1.54400688696e-05
-2.1337616123e-07
-5.23899809885e-09
-1.66390047802e-10
-1.80213014657e-11
-3.25471573403e-12
-6.09491407717e-13
-9.67435013822e-14
-1.24984152844e-14
-1.31882660665e-15
-1.14462287977e-16
-8.22061172797e-18
-4.90964911918e-19
-2.51120051295e-20
-1.30612512906e-21
-5.28846160127e-23
-1.12700741194e-06
-7.33812992904e-06
-8.10358502369e-05
0.000168826140006
-2.81132155918e-05
-5.89758202224e-07
-1.64437640301e-08
-4.52523945069e-10
-3.07108068661e-11
-4.80155343943e-12
-9.12780010206e-13
-1.55124174923e-13
-2.16316095933e-14
-2.45337317798e-15
-2.2719199481e-16
-1.72651720562e-17
-1.08164455375e-18
-5.76453793373e-20
-3.09097993794e-21
-1.19436917048e-22
-1.39110014969e-06
-1.10825796955e-05
-0.000145248986018
0.000358845384448
-4.42811817189e-05
-2.71006635906e-06
-8.81072346634e-08
-2.52062131604e-09
-8.06436496639e-11
-8.7384547448e-12
-1.47704006935e-12
-2.51678558643e-13
-3.66740877734e-14
-4.39734535761e-15
-4.30969875304e-16
-3.4546286448e-17
-2.27069336444e-18
-1.26417826649e-19
-7.00719447422e-21
-2.60845907619e-22
-1.28049977516e-06
-8.84010703862e-06
-8.45470762689e-05
-3.0007959127e-05
-2.63929104566e-05
-2.50528891881e-06
-7.94046119447e-08
-3.34104480484e-09
-1.16868405838e-10
-1.28052585659e-11
-2.19543398412e-12
-3.903370086e-13
-5.99577148025e-14
-7.59323416102e-15
-7.85408867658e-16
-6.62798987446e-17
-4.56942959424e-18
-2.66144891411e-19
-1.52725891369e-20
-5.52192155243e-22
-9.58303191746e-07
-5.41706959221e-06
-3.70314502026e-05
-6.55694105596e-05
2.7494814284e-05
-5.87179303979e-06
-1.1690105022e-07
-3.67629318599e-09
-1.50078499743e-10
-1.64711238618e-11
-2.94712577857e-12
-5.61818548234e-13
-9.26947364402e-14
-1.25144229632e-14
-1.37135735274e-15
-1.22032168078e-16
-8.83591226209e-18
-5.39399997917e-19
-3.20860683171e-20
-1.13495875401e-21
-6.83157369628e-07
-3.30102981473e-06
-1.79703945143e-05
-4.03750860126e-05
5.4317613404e-05
-1.07935983753e-05
-2.62523318372e-07
-7.78801095768e-09
-2.63608864642e-10
-2.22438870847e-11
-3.83273026633e-12
-7.66516697807e-13
-1.359725858e-13
-1.96616100406e-14
-2.29122300613e-15
-2.15573073384e-16
-1.64308782967e-17
-1.05373458793e-18
-6.50624961012e-20
-2.26622670529e-21
-5.10197624574e-07
-2.24977862377e-06
-1.09266203203e-05
-3.75504130831e-05
6.31007059107e-05
-1.2641210552e-05
-7.19791287198e-07
-2.39496838486e-08
-7.64189760545e-10
-3.67370092752e-11
-5.21621281448e-12
-1.02826915704e-12
-1.92189679476e-13
-2.96323656073e-14
-3.67213424878e-15
-3.65801600635e-16
-2.94072333369e-17
-1.98565508131e-18
-1.27417846911e-19
-4.39533973549e-21
-4.24169179167e-07
-1.82792896646e-06
-8.8263821831e-06
-4.95256712578e-05
0.000102786998573
-1.93505342215e-05
-1.13621433207e-06
-3.50400977548e-08
-1.31922033374e-09
-5.08916453682e-11
-6.67163584509e-12
-1.31851582289e-12
-2.59702900394e-13
-4.27595738331e-14
-5.6446834401e-15
-5.96438247059e-16
-5.06777922959e-17
-3.61066404304e-18
-2.41048391618e-19
-8.27569661219e-21
-3.89107254893e-07
-1.65861238412e-06
-7.8474142311e-06
-4.74639523778e-05
6.7701147801e-05
-1.69696590708e-05
-1.67954892115e-06
-4.25719736935e-08
-1.4050870837e-09
-5.98384728691e-11
-7.76970451807e-12
-1.5816687542e-12
-3.32177135619e-13
-5.8792098689e-14
-8.30627127671e-15
-9.33919922254e-16
-8.40886037181e-17
-6.33586398053e-18
-4.40475980278e-19
-1.51150378225e-20
-3.75270623089e-07
-1.54262091467e-06
-6.86489901825e-06
-3.90733696048e-05
4.03542495254e-05
-1.20081358156e-05
-2.43775991478e-06
-5.67739491906e-08
-1.63123503399e-09
-7.00625893087e-11
-8.68228449872e-12
-1.80995935062e-12
-4.04506939319e-13
-7.72193625476e-14
-1.17189298902e-14
-1.40591849932e-15
-1.34447857685e-16
-1.0733801214e-17
-7.77553040166e-19
-2.67632787814e-20
-3.69983760639e-07
-1.44219997338e-06
-6.00370745304e-06
-3.1888929169e-05
2.11782148585e-05
2.53809682942e-05
-6.70183336441e-06
-2.41993517701e-07
-6.36442558501e-09
-1.72280974247e-10
-1.21599628997e-11
-2.17351907794e-12
-4.86132318921e-13
-9.84851875816e-14
-1.5983131258e-14
-2.04416202841e-15
-2.07699729844e-16
-1.75829061334e-17
-1.32697739028e-18
-4.59365778567e-20
-3.6587949304e-07
-1.33181117067e-06
-5.12656565249e-06
-2.48013422129e-05
4.7700719453e-06
2.73553213566e-05
-8.93968761354e-06
-4.91705947678e-07
-1.54601319036e-08
-4.78705942972e-10
-2.0232392159e-11
-2.82564503419e-12
-5.93759959455e-13
-1.23919047724e-13
-2.12673497189e-14
-2.88679502084e-15
-3.11114881184e-16
-2.791044733e-17
-2.19223961869e-18
-7.64592507764e-20
-3.59982234233e-07
-1.21088218606e-06
-4.27951970635e-06
-1.86884078935e-05
-4.61895922239e-06
2.73235255672e-05
-1.01339828755e-05
-6.26748426764e-07
-1.90561449262e-08
-7.07996500888e-10
-2.64965949638e-11
-3.44613653542e-12
-7.08994882142e-13
-1.5232249446e-13
-2.75893598597e-14
-3.96589154879e-15
-4.52709368039e-16
-4.29980375662e-17
-3.5096045413e-18
-1.23445893142e-19
-3.55098877235e-07
-1.10228146231e-06
-3.60143597823e-06
-1.43575244616e-05
-7.77355966104e-06
2.62865283649e-05
-9.25175200043e-06
-8.95373218617e-07
-2.4440595064e-08
-7.64773530972e-10
-3.16936834403e-11
-3.92890818713e-12
-8.10801106642e-13
-1.80721684501e-13
-3.47329022089e-14
-5.29398041535e-15
-6.40088656353e-16
-6.43288130097e-17
-5.44734015946e-18
-1.93319776432e-19
-3.55297249205e-07
-1.02236242546e-06
-3.1321395989e-06
-1.15921154888e-05
-7.8796720038e-06
2.36828423262e-05
-6.59823152482e-06
-1.34492290565e-06
-5.11596365025e-08
-1.41677134171e-09
-4.64477258951e-11
-4.5955923648e-12
-9.11988764369e-13
-2.08759973236e-13
-4.24573435974e-14
-6.86879380912e-15
-8.7990012767e-16
-9.35194028496e-17
-8.20062468859e-18
-2.93648281507e-19
-3.61406324098e-07
-9.6833182481e-07
-2.81864362053e-06
-9.76934920011e-06
-7.6702343742e-06
2.17668382184e-05
-4.90940228727e-06
-1.78049793875e-06
-1.06620864187e-07
-3.05504255101e-09
-9.22633305207e-11
-6.02304988311e-12
-1.0466101108e-12
-2.38487821097e-13
-5.06357885959e-14
-8.67947302008e-15
-1.17747120865e-15
-1.3223238256e-16
-1.1981744503e-17
-4.32782741828e-19
-3.70853960259e-07
-9.28123468391e-07
-2.5892578501e-06
-8.40634103678e-06
-8.0772496974e-06
1.55357022121e-05
1.0572012558e-05
-4.37968621722e-06
-2.05234477168e-07
-5.66254097391e-09
-1.7561086328e-10
-8.0765646629e-12
-1.208643152e-12
-2.68369198416e-13
-5.90575499057e-14
-1.06919565744e-14
-1.53504317861e-15
-1.8197147336e-16
-1.69991615356e-17
-6.19112135638e-19
-3.8169437061e-07
-8.96412557376e-07
-2.41184675172e-06
-7.32265023503e-06
-7.93820516999e-06
8.09772331667e-06
2.01180606644e-05
-7.05489563408e-06
-3.72153624949e-07
-9.63066881701e-09
-2.95592406797e-10
-1.0390331181e-11
-1.37898956454e-12
-2.96366036029e-13
-6.73188057554e-14
-1.28417338012e-14
-1.95043530009e-15
-2.43851282337e-16
-2.34295069691e-17
-8.60034965999e-19
-3.93165238194e-07
-8.74430103188e-07
-2.27672351212e-06
-6.43415505001e-06
-7.04269425929e-06
4.22194291369e-06
1.64694656753e-05
-7.81422169855e-06
-5.28571912024e-07
-1.46434794864e-08
-4.11194570865e-10
-1.37076982744e-11
-1.56513815447e-12
-3.24219460265e-13
-7.52041010985e-14
-1.50731406904e-14
-2.41983865136e-15
-3.18673685751e-16
-3.14096060924e-17
-1.16157828039e-18
-4.05588695455e-07
-8.65506634608e-07
-2.18437688019e-06
-5.71458943126e-06
-5.84551675859e-06
2.9617068374e-06
1.36259096453e-05
-7.23677975559e-06
-4.40943900705e-07
-5.44230043946e-08
-1.26524587159e-09
-2.89552395212e-11
-2.13032420121e-12
-3.75436797165e-13
-8.41799209825e-14
-1.74701561338e-14
-2.94738277398e-15
-4.07541277144e-16
-4.10691056124e-17
-1.52935115303e-18
-4.20474345104e-07
-8.71692612483e-07
-2.1276479432e-06
-5.10874010238e-06
-4.57894749991e-06
2.57259844386e-06
1.12818933842e-05
-5.99168185882e-06
-6.87865383139e-07
-9.21266605638e-08
-2.33590166669e-09
-5.96487909751e-11
-3.16117425671e-12
-4.60578918686e-13
-9.61209626186e-14
-2.02189059848e-14
-3.54739224088e-15
-5.12255292455e-16
-5.25567161658e-17
-1.96925094515e-18
-4.40218193343e-07
-8.91928806621e-07
-2.08946002835e-06
-4.54438246261e-06
-3.31057958525e-06
2.38912336398e-06
8.53290727275e-06
-4.22869520782e-06
-1.39057706942e-06
-6.65029979607e-08
-2.03084240499e-09
-7.55571176899e-11
-3.87085963779e-12
-5.39725022295e-13
-1.08985235663e-13
-2.32418312096e-14
-4.2215442255e-15
-6.34116992095e-16
-6.59700262283e-17
-2.48529720799e-18
-4.67058902691e-07
-9.23706309812e-07
-2.05333491345e-06
-3.98071478129e-06
-2.1284336852e-06
2.28904358377e-06
6.23231110256e-06
-2.55079589901e-06
-1.52013114087e-06
-7.408398377e-08
-2.22817979963e-09
-9.17238417441e-11
-4.32986240947e-12
-5.86416422998e-13
-1.20170032802e-13
-2.61878136325e-14
-4.94442495973e-15
-7.72372765541e-16
-8.12477395952e-17
-3.07667026672e-18
-5.01798353292e-07
-9.62822193278e-07
-2.00236274032e-06
-3.39720879578e-06
-1.07898074523e-06
2.02492185612e-06
4.73423115818e-06
-1.65923496106e-06
-1.66775589208e-06
-9.0772325261e-08
-3.59309322187e-09
-1.34749094984e-10
-5.06770750096e-12
-6.22976396023e-13
-1.27893116854e-13
-2.87932077569e-14
-5.67473495982e-15
-9.24280032073e-16
-9.81689655296e-17
-3.73867322621e-18
-5.43318991683e-07
-1.00222467566e-06
-1.91885970171e-06
-2.78915025506e-06
-2.09203631202e-07
1.51727806008e-06
3.52742408015e-06
-3.43938279926e-08
-1.92324217721e-06
-3.7869427438e-08
-1.73881737873e-08
-4.13543755538e-10
-9.34172592802e-12
-7.62657641206e-13
-1.39756022446e-13
-3.14335972262e-14
-6.40995186415e-15
-1.08807611939e-15
-1.16529300064e-16
-4.46837128616e-18
-5.88300837515e-07
-1.03127087698e-06
-1.78817545307e-06
-2.17000698996e-06
4.12545378243e-07
5.84180163898e-07
3.56736396137e-07
9.29465947873e-06
-3.57312066556e-06
2.01550831913e-07
-7.96138303066e-08
-1.66686428426e-09
-2.94809792461e-11
-1.33690361092e-12
-1.78510767097e-13
-3.59122122984e-14
-7.27169408858e-15
-1.27043531485e-15
-1.36578867109e-16
-5.2757766266e-18
-6.3031293012e-07
-1.03560008551e-06
-1.59961086353e-06
-1.55052122428e-06
8.04070410532e-07
-3.68202860687e-07
-1.80320464659e-06
1.10235448139e-05
-4.5766868483e-06
-6.10232074312e-07
-3.96234236869e-08
-1.38241754756e-09
-4.04422287501e-11
-1.81005250216e-12
-2.21651978572e-13
-4.17814656388e-14
-8.31012988096e-15
-1.47878601342e-15
-1.58768672304e-16
-6.17964032573e-18
-6.59955359322e-07
-1.00124287804e-06
-1.35091589143e-06
-9.53761608233e-07
9.63889723459e-07
-1.20814705853e-06
-2.85851924461e-06
1.13333326452e-05
-4.99883127274e-06
-5.90052001557e-07
-2.32955506218e-08
-1.32474841359e-09
-5.00948531453e-11
-2.14822834597e-12
-2.5538548985e-13
-4.75735287853e-14
-9.44288707542e-15
-1.71150132326e-15
-1.83091051364e-16
-7.19066763924e-18
-6.66664222425e-07
-9.18726393512e-07
-1.05020214998e-06
-4.25024600407e-07
8.84014775082e-07
-1.89275143875e-06
-3.32084604704e-06
1.15407825949e-05
-5.12078230834e-06
-6.38112420109e-07
-2.38239377624e-08
-1.7510649939e-09
-7.40604970242e-11
-2.62524524282e-12
-2.84021338342e-13
-5.25210392748e-14
-1.05504921649e-14
-1.95801369352e-15
-2.08849123017e-16
-8.30306490084e-18
-6.40898081222e-07
-7.853954122e-07
-7.1996508726e-07
-2.93847995295e-08
5.76734549515e-07
-2.46877182722e-06
-3.20746473e-06
1.14527434275e-05
-5.08108717381e-06
-7.15491014023e-07
-2.06351742102e-08
-3.53130906131e-09
-1.34736849386e-10
-3.77378091683e-12
-3.24626559981e-13
-5.73352037235e-14
-1.16028995577e-14
-2.20826325136e-15
-2.35111281987e-16
-9.50338129653e-18
-5.76828298507e-07
-6.09964352251e-07
-4.06771732546e-07
1.68686419228e-07
9.66821565614e-08
-2.90744833994e-06
-2.71385233371e-06
1.10506025253e-05
-4.95230043812e-06
-7.84070170209e-07
1.07628221486e-08
-1.00362988224e-08
-3.28836497596e-10
-7.43279987448e-12
-4.29254748564e-13
-6.5177616642e-14
-1.28106480679e-14
-2.47021832278e-15
-2.61821867742e-16
-1.07983932699e-17
-4.79746665882e-07
-4.23855534059e-07
-1.81500016734e-07
1.38462839223e-07
-4.66731687514e-07
-3.17500004738e-06
-1.90351778107e-06
1.0321368619e-05
-4.76040549566e-06
-8.32540801573e-07
3.10455324312e-08
-1.8664829955e-08
-6.76022236059e-10
-1.61295184599e-11
-6.60689622556e-13
-7.98261795311e-14
-1.45769090148e-14
-2.77879996535e-15
-2.90724619775e-16
-1.22458170173e-17
-3.78071500959e-07
-2.84839283291e-07
-1.08187318772e-07
-8.91618039541e-08
-1.01275583749e-06
-3.24902327817e-06
-8.12169157308e-07
9.21652749945e-06
-4.49591168517e-06
-8.35920493026e-07
-2.98913125015e-08
-1.71916778068e-08
-8.31346778749e-10
-2.75732835794e-11
-9.70745145781e-13
-9.94898600762e-14
-1.69758555065e-14
-3.16260581052e-15
-3.23911720476e-16
-1.39247230896e-17
-3.19279160993e-07
-2.47756735144e-07
-1.9712928641e-07
-4.24862234589e-07
-1.45506399853e-06
-3.10932456147e-06
5.99832863774e-07
7.52409679386e-06
-4.10442107833e-06
-7.76842046451e-07
-6.14970117283e-08
-1.16049810105e-08
-8.33813004068e-10
-3.88803348825e-11
-1.35029360848e-12
-1.21250902196e-13
-1.97728440993e-14
-3.62131637998e-15
-3.61919344497e-16
-1.58716305112e-17
-3.34134706903e-07
-3.17441149239e-07
-3.87150587618e-07
-7.56988569045e-07
-1.71647459653e-06
-2.60408225643e-06
3.09946983338e-06
2.45338839618e-06
-2.9825205949e-06
-6.37340351881e-07
-6.30767392293e-08
-6.61241558334e-09
-8.87481465286e-10
-5.36692832279e-11
-1.91638658324e-12
-1.47006177703e-13
-2.28514429631e-14
-4.14161125273e-15
-4.03787082786e-16
-1.80606816737e-17
-4.04007994582e-07
-4.41325037365e-07
-5.92534254298e-07
-1.01569662904e-06
-1.80454112296e-06
-1.83228253447e-06
5.83529126289e-06
-2.03834703374e-06
-1.63789308649e-06
-4.7168643561e-07
-5.45466363475e-08
-2.29315290317e-09
-1.16406624315e-09
-8.04672540681e-11
-2.98669285164e-12
-1.85998382292e-13
-2.65802555343e-14
-4.73312461697e-15
-4.49063206105e-16
-2.04587228322e-17
-4.80043342757e-07
-5.59181358354e-07
-7.62789774271e-07
-1.20095948147e-06
-1.80728659803e-06
-1.11176955884e-06
6.9622542962e-06
-1.043882581e-06
-1.43600772079e-06
-4.00953275102e-07
-5.1923864801e-08
1.81688071706e-09
-1.83740617314e-09
-1.33373738388e-10
-5.48297303148e-12
-2.56144211168e-13
-3.18147785377e-14
-5.44352001305e-15
-4.99333450045e-16
-2.30996468274e-17
-5.31207975117e-07
-6.44536069518e-07
-8.84751112161e-07
-1.30850151686e-06
-1.67659805757e-06
-1.90841684433e-07
7.1077782952e-06
-1.42028392647e-06
-1.40855365531e-06
-3.59539059232e-07
-5.26253423893e-08
5.62559486366e-09
-2.92886040531e-09
-2.29192956674e-10
-1.02431876887e-11
-3.89363134867e-13
-4.02980619048e-14
-6.38366639633e-15
-5.59607203925e-16
-2.61524085953e-17
-5.61201240211e-07
-7.02434131285e-07
-9.59164502439e-07
-1.31123975187e-06
-1.29896269501e-06
1.16614726494e-06
5.75024177758e-06
-1.83026865363e-06
-1.29037931624e-06
-3.15637978113e-07
-5.26850597367e-08
8.40845914498e-09
-4.14102202726e-09
-3.66422672233e-10
-1.89120595818e-11
-6.40001223446e-13
-5.36076497381e-14
-7.68100301718e-15
-6.35914108662e-16
-2.98842008924e-17
-5.87379440782e-07
-7.42006709262e-07
-9.74021173635e-07
-1.14832787808e-06
-5.27559760762e-07
2.9519743428e-06
2.31959753338e-06
-1.6953242884e-06
-1.04162758949e-06
-2.5799354162e-07
-4.93949980078e-08
9.49904197303e-09
-5.01957614092e-09
-5.30205530794e-10
-3.26218040011e-11
-1.10702600777e-12
-7.3094290805e-14
-9.42569428278e-15
-7.32599736506e-16
-3.46123204578e-17
-6.22062251803e-07
-7.62859987893e-07
-9.03721906664e-07
-7.55065364694e-07
6.58654217143e-07
4.2932414073e-06
-1.27550787947e-06
-1.19328130081e-06
-7.28437068975e-07
-1.90752675808e-07
-4.21884163762e-08
9.51476646363e-09
-5.30468359616e-09
-6.99434839543e-10
-5.21049130967e-11
-1.92758032452e-12
-1.01358896967e-13
-1.15917981826e-14
-8.48840866959e-16
-4.06609625985e-17
-6.55304761434e-07
-7.33055896159e-07
-6.81015667924e-07
-5.81911624173e-08
1.97246116757e-06
2.77278897657e-06
-7.98399928255e-07
-1.10488038498e-06
-5.27044384891e-07
-1.4123124692e-07
-3.5025092434e-08
8.93060723028e-09
-5.08213479376e-09
-8.4147841219e-10
-7.6461450916e-11
-3.27317988236e-12
-1.40475985596e-13
-1.40092788531e-14
-9.78562199249e-16
-4.84067116093e-17
-6.04727284894e-07
-5.16022303675e-07
-1.00972751951e-07
1.09820047709e-06
2.75932374925e-06
-9.63871114014e-07
-7.15541886176e-07
-8.21951829182e-07
-3.53020597119e-07
-9.95378655065e-08
-2.75842329438e-08
8.14102864252e-09
-4.52192660134e-09
-9.39313076316e-10
-1.05971954375e-10
-5.43211321267e-12
-1.97040111425e-13
-1.65430011996e-14
-1.11959946524e-15
-5.85881078924e-17
-2.98204847676e-07
6.87236453064e-08
8.63050591586e-07
1.90802438903e-06
-3.17334791501e-07
-2.49424870768e-07
-7.73481390642e-07
-5.6187521291e-07
-2.24741632523e-07
-6.72545263419e-08
-2.05571389061e-08
7.19522580293e-09
-3.78965847805e-09
-9.87819943268e-10
-1.38610970956e-10
-8.9137404912e-12
-2.82746732279e-13
-1.90459082865e-14
-1.27129418426e-15
-7.22137135608e-17
3.36751784629e-07
7.90957430609e-07
1.13965536404e-06
-6.1882700347e-07
-8.00838701961e-08
-5.37257044665e-07
-6.07104729446e-07
-3.4743852752e-07
-1.36237291653e-07
-4.39533099738e-08
-1.48118333485e-08
6.36991913148e-09
-2.99753259103e-09
-1.01575740145e-09
-1.7493496631e-10
-1.37061102767e-11
-4.09942000304e-13
-2.07668670608e-14
-1.39650028721e-15
-8.81336947875e-17
-3.26223962447e-31
-2.46310446312e-32
-2.00633162442e-30
-2.28184350448e-31
-1.04708237291e-29
-1.29000935945e-30
-4.36024702748e-29
-4.70613832512e-30
-1.49215125271e-28
-1.40323360476e-29
-4.49735323952e-28
-3.79325761898e-29
-1.24595933798e-27
-9.64003006483e-29
-3.24810356061e-27
-2.34433876894e-28
-8.11493605091e-27
-5.53599750131e-28
-1.97588422951e-26
-1.28769419406e-27
-4.75071239187e-26
-2.98486178468e-27
-1.13622606376e-25
-6.87049381177e-27
-2.70547214149e-25
-1.57524691648e-26
-6.38600100374e-25
-3.60838281691e-26
-1.48481572291e-24
-8.18364249295e-26
-3.38249734486e-24
-1.82707939385e-25
-7.52848938054e-24
-4.00351488156e-25
-1.63659928395e-23
-8.60598315208e-25
-3.47734758339e-23
-1.8161310256e-24
-7.22298341315e-23
-3.76668655815e-24
-1.46576730417e-22
-7.66280222952e-24
-2.90241827564e-22
-1.52505109935e-23
-5.59951601329e-22
-2.96493739808e-23