/*--------------------------------*- C++ -*----------------------------------*\
  =========                 |
  \\      /  F ield         | OpenFOAM: The Open Source CFD Toolbox
   \\    /   O peration     | Website:  https://openfoam.org
    \\  /    A nd           | Version:  dev
     \\/     M anipulation  |
\*---------------------------------------------------------------------------*/
FoamFile
{
    version     2.0;
    format      ascii;
    class       volScalarField;
    location    "0.3";
    object      edc::R_CH2;
}
// * * * * * * * * * * * * * * * * * * * * * * * * * * * * * * * * * * * * * //

dimensions      [1 -3 -1 0 0 0 0];

internalField   nonuniform List<scalar> 
1629
(
-2.74544212125e-27
-3.08448011673e-27
-4.08218913719e-27
-6.60003530418e-25
-1.17683674915e-24
-4.00588114344e-24
-1.18793840683e-21
-6.53436979166e-21
-1.04721744312e-19
-1.54597276921e-18
-7.71727458937e-18
-6.52685446283e-17
-1.60434408295e-16
-7.55209857069e-16
-4.85763075472e-15
-1.13897569015e-14
-5.62776775265e-14
-1.06352515265e-12
-1.36648965915e-12
-2.2152817367e-11
-4.18003776412e-10
-1.98477227411e-10
-2.71630749254e-09
-4.36150493678e-08
-4.1372513201e-10
-3.53397115979e-09
-3.00586636197e-08
-5.49813156403e-10
-2.8483362374e-09
-1.36069110227e-08
-5.78458238227e-10
-1.83510412388e-09
-5.4608996894e-09
-5.59942441647e-10
-1.30456172724e-09
-3.54303486687e-09
-1.25334794598e-09
-4.10701495455e-09
-2.16301040683e-08
-2.57122247584e-08
-1.11005011814e-07
-7.37638999067e-07
-9.85420453799e-08
-3.68327844981e-07
-2.10292524911e-06
-1.15945077719e-07
-3.45669092831e-07
-1.51371907307e-06
-8.60529392355e-08
-2.1005620772e-07
-7.24704943186e-07
-5.1111189606e-08
-1.0678421875e-07
-3.08016085356e-07
-3.3502884492e-08
-6.8319247649e-08
-2.03618147937e-07
-3.7679386977e-08
-8.37307577164e-08
-2.80367579729e-07
-4.75071365394e-08
-1.02203578343e-07
-3.21864641049e-07
-4.58228048959e-08
-8.9518089178e-08
-2.46968638234e-07
-3.48720497114e-08
-6.16163116071e-08
-1.48774885997e-07
-2.41999750565e-08
-3.99611056619e-08
-8.91042600883e-08
-1.94652450797e-08
-3.20461894949e-08
-7.26607365159e-08
-2.03869621144e-08
-3.39579912682e-08
-7.83504964912e-08
-2.2442088524e-08
-3.62959341002e-08
-7.99849473388e-08
-2.23713763859e-08
-3.44276627425e-08
-7.06614617092e-08
-2.05080046605e-08
-3.01517886112e-08
-5.81024798727e-08
-1.87182082539e-08
-2.66830723853e-08
-4.93651541935e-08
-1.84358173098e-08
-2.58260097932e-08
-4.6734328909e-08
-1.97474930172e-08
-2.72197473741e-08
-4.81365761957e-08
-2.21496828479e-08
-2.99369329728e-08
-5.1405821504e-08
-2.50105901271e-08
-3.30695310676e-08
-5.49140500618e-08
-2.78291375131e-08
-3.59952479126e-08
-5.77674867992e-08
-3.07666936763e-08
-3.90290472369e-08
-6.07588762961e-08
-3.4374143128e-08
-4.28950018849e-08
-6.50548023107e-08
-3.93111569276e-08
-4.83678926908e-08
-7.16934841819e-08
-4.62035542265e-08
-5.61316503629e-08
-8.14724619518e-08
-5.55396604394e-08
-6.66749253952e-08
-9.48510055569e-08
-6.76542053873e-08
-8.02961383013e-08
-1.12014906648e-07
-8.30581529445e-08
-9.75231337094e-08
-1.33524047561e-07
-1.02965375189e-07
-1.19708771756e-07
-1.61070685021e-07
-1.300756231e-07
-1.49892430947e-07
-1.98517643779e-07
-1.68770970134e-07
-1.92896812769e-07
-2.51711071601e-07
-2.25502088351e-07
-2.55676236658e-07
-3.28734949673e-07
-3.10037462218e-07
-3.48611632935e-07
-4.41300962899e-07
-4.37220156604e-07
-4.87231460474e-07
-6.06355552962e-07
-6.2692249942e-07
-6.91786454036e-07
-8.44758966437e-07
-8.99734612253e-07
-9.82324378655e-07
-1.17501244841e-06
-1.2678892882e-06
-1.36928842582e-06
-1.60336371217e-06
-1.72925550727e-06
-1.84838125245e-06
-2.12085888197e-06
-2.28089603518e-06
-2.41608469673e-06
-2.72320163031e-06
-2.95747766455e-06
-3.10944747209e-06
-3.45302805755e-06
-3.84324888024e-06
-4.01569353487e-06
-4.40398680459e-06
-5.01945182269e-06
-5.21587096975e-06
-5.65582522058e-06
-6.51105259473e-06
-6.72929186576e-06
-7.21511698924e-06
-8.23592322236e-06
-8.46078487716e-06
-8.95539304955e-06
-9.9864520555e-06
-1.01834832534e-05
-1.06076947872e-05
-1.13184667166e-05
-1.14311487807e-05
-1.16572162091e-05
-1.1032550395e-05
-1.09647294448e-05
-1.07806076018e-05
-7.30119642072e-06
-6.95893954182e-06
-6.17007239087e-06
1.52414473452e-06
2.1224046576e-06
3.45054419092e-06
-3.29764844823e-16
-2.21927651394e-14
-1.7568325519e-11
-4.08407204575e-09
-1.56910974398e-07
-1.22177114823e-07
-4.653149748e-08
-1.45514644274e-08
-1.0768109832e-08
-1.1729087706e-07
-4.77954811064e-06
-1.18292571266e-05
-6.38778846664e-06
-2.38316841705e-06
-8.65642099617e-07
-6.52723332242e-07
-9.97545391593e-07
-1.05126937114e-06
-6.97406931248e-07
-3.66707081422e-07
-2.07264307355e-07
-1.77073609084e-07
-1.93780359148e-07
-1.87410646309e-07
-1.53885938489e-07
-1.19250314314e-07
-9.79413951228e-08
-9.11780315144e-08
-9.18946770446e-08
-9.53013798844e-08
-9.84561400388e-08
-1.00099060765e-07
-1.02146130444e-07
-1.06543595413e-07
-1.14709542513e-07
-1.27547403014e-07
-1.45378476179e-07
-1.68125324465e-07
-1.96384015334e-07
-2.32422680872e-07
-2.8147875821e-07
-3.50989814905e-07
-4.50682309444e-07
-5.94094085743e-07
-7.99950582873e-07
-1.0893827439e-06
-1.47784940275e-06
-1.9650094747e-06
-2.53563254712e-06
-3.18541146752e-06
-3.96549223397e-06
-4.9785189621e-06
-6.30077224595e-06
-7.91848072055e-06
-9.65750302519e-06
-1.11861730019e-05
-1.19232669588e-05
-1.04320004061e-05
-4.95894012042e-06
5.36237231448e-06
-1.76072483754e-20
-2.83694942354e-20
-4.80591436771e-20
-6.68436495361e-20
-4.81910098516e-20
-2.158068826e-20
-6.78045212505e-21
-1.60239356451e-21
-2.99961859349e-22
-4.57631155814e-23
-5.77142508158e-24
-6.0785098295e-25
-5.39417697215e-26
-4.07079611234e-27
-2.64111696643e-28
-1.49373006845e-29
-7.50683736391e-31
-3.43387935378e-32
-1.47809523552e-33
-1.03053807323e-34
-3.78838043789e-19
-6.46602978097e-19
-1.17836267658e-18
-1.70100747663e-18
-1.07985767518e-18
-4.13246328158e-19
-1.10656271682e-19
-2.24891370448e-20
-3.68523229764e-21
-4.9921751138e-22
-5.66498530631e-23
-5.44551468108e-24
-4.48296416224e-25
-3.19842575931e-26
-2.0049767307e-27
-1.12264447395e-28
-5.73807453743e-30
-2.74855914941e-31
-1.25142603092e-32
-9.10375650958e-34
-6.30967789209e-18
-9.39042789065e-18
-1.81816752919e-17
-2.52367728204e-17
-1.36715213036e-17
-4.48540241357e-18
-1.04209764785e-18
-1.87398347975e-19
-2.76936856504e-20
-3.42333872137e-21
-3.58860611364e-22
-3.23160177865e-23
-2.53358150211e-24
-1.75417514278e-25
-1.08894602709e-26
-6.16093562112e-28
-3.24026364278e-29
-1.62891010356e-30
-7.79439460074e-32
-5.68802191612e-33
-2.13709574551e-16
-5.59318863644e-16
-4.40476195424e-16
-3.22305761853e-16
-1.34691930975e-16
-3.84100810726e-17
-8.0196136228e-18
-1.33118216256e-18
-1.83741504858e-19
-2.14353535988e-20
-2.14425949103e-21
-1.86572695225e-22
-1.43313143765e-23
-9.86440949507e-25
-6.1703023509e-26
-3.55530146029e-27
-1.9181776632e-28
-9.95819153403e-30
-5.0240850376e-31
-4.40516682131e-32
-4.84672282443e-14
-5.12001893474e-14
-1.81075698938e-14
-5.00229184054e-15
-1.38357815141e-15
-3.25750560931e-16
-6.02789517257e-17
-9.18672523747e-18
-1.18025806721e-18
-1.30192099105e-19
-1.25243873202e-20
-1.06681657202e-21
-8.1654144393e-23
-5.68667065951e-24
-3.63626084222e-25
-2.1510941747e-26
-1.19123235349e-27
-6.34532937723e-29
-3.35105410932e-30
-3.71482154768e-31
-6.31218999535e-11
-3.5730663197e-11
-2.04255038097e-12
-1.02994795302e-13
-1.46667344297e-14
-2.61810045068e-15
-4.23437387428e-16
-5.8482684372e-17
-6.98230869464e-18
-7.33201139853e-19
-6.87945059366e-20
-5.85205327482e-21
-4.56353517025e-22
-3.27881196357e-23
-2.16996373541e-24
-1.32317185131e-25
-7.4964504508e-27
-4.05821725642e-28
-2.20237707151e-29
-2.67942381244e-30
-1.24692135443e-08
4.44067135634e-09
-3.38434009191e-10
-1.00169787095e-11
-2.13404832257e-13
-1.91123290994e-14
-2.51564479909e-15
-3.15834564441e-16
-3.57349342435e-17
-3.67645800291e-18
-3.48700985966e-19
-3.07642387291e-20
-2.52377804184e-21
-1.90847252146e-22
-1.31649543273e-23
-8.25293145731e-25
-4.7432184517e-26
-2.57544117901e-27
-1.40655803823e-28
-1.72114839403e-29
6.2165084828e-07
-3.06132897839e-08
3.60649001839e-10
-2.26843240523e-10
-3.23867898276e-12
-9.65879420113e-14
-1.00414828811e-14
-1.24531463036e-15
-1.45599783429e-16
-1.59634922471e-17
-1.65225999584e-18
-1.60153535366e-19
-1.42627179191e-20
-1.14464438965e-21
-8.18386503996e-23
-5.21431856786e-24
-3.00012735924e-25
-1.61007979388e-26
-8.69631516388e-28
-1.00642309636e-28
-4.37653599905e-07
6.01649914004e-07
-2.37360134249e-08
-3.30758597099e-10
-6.98105281668e-12
-2.08148034115e-13
-2.19271066749e-14
-3.304448902e-15
-4.83807474633e-16
-6.5635873623e-17
-8.11084868595e-18
-8.9262416463e-19
-8.59498295211e-20
-7.18149050534e-21
-5.21050433409e-22
-3.31327138843e-23
-1.8798111425e-24
-9.83789437575e-26
-5.18913854135e-27
-5.4570122997e-28
-1.46292796941e-07
-3.2508869514e-07
-8.24003429697e-09
-1.1816334178e-10
-5.96331289802e-12
-3.0221647592e-13
-4.38926980966e-14
-9.69696727596e-15
-1.99133049788e-15
-3.40533495228e-16
-4.81084484318e-17
-5.65377444786e-18
-5.57704261161e-19
-4.66333701566e-20
-3.34243459309e-21
-2.0831552235e-22
-1.15057279481e-23
-5.8136807314e-25
-2.97206994917e-26
-2.78009242993e-27
-3.44527295262e-08
-6.83802532969e-08
-9.93823430591e-09
-3.25179570337e-10
-1.97144671205e-11
-1.33466112468e-12
-2.45557854581e-13
-6.21934565371e-14
-1.37948843559e-14
-2.41604564884e-15
-3.38463261222e-16
-3.88478960093e-17
-3.72073844629e-18
-3.01624158135e-19
-2.09580903966e-20
-1.26561955274e-21
-6.75437393913e-23
-3.27853780538e-24
-1.6199856831e-25
-1.33586160699e-26
-4.34035035035e-08
-6.83973469277e-08
-1.24039850477e-06
-7.88546808895e-08
-2.61499813345e-09
-6.39067781069e-11
-4.01624191594e-12
-6.5715274578e-13
-1.20455771533e-13
-1.88643545666e-14
-2.43516540646e-15
-2.62072484558e-16
-2.38283748325e-17
-1.85026050636e-18
-1.23877646354e-19
-7.22828049929e-21
-3.72371286832e-22
-1.73701727389e-23
-8.30994262745e-25
-6.03428530235e-26
-7.69024776095e-07
-1.88179822816e-05
-0.000115985065194
-5.43381223259e-06
-1.25322664957e-07
-2.9245708715e-09
-7.24313543115e-11
-6.97247636101e-12
-9.85209637338e-13
-1.3392829927e-13
-1.57536411227e-14
-1.58567969182e-15
-1.37151094587e-16
-1.02467686916e-17
-6.64701922105e-19
-3.76935929906e-20
-1.88505207051e-21
-8.50103137267e-23
-3.96066878414e-24
-2.54459677952e-25
-3.86193407538e-05
-0.00114151066971
0.00344354091828
-0.000287131334384
-3.77399050663e-06
-7.90886073891e-08
-1.05010196497e-09
-5.90975823551e-11
-6.28633755259e-12
-7.47280398081e-13
-8.18619099648e-14
-7.89673599492e-15
-6.64739717824e-16
-4.87538952199e-17
-3.11741630163e-18
-1.74325686714e-19
-8.5695160599e-21
-3.77930715684e-22
-1.73145084027e-23
-9.93323629123e-25
-8.36842841147e-05
-0.00187173890989
0.00418731734159
-0.000502932178737
-9.16389542931e-06
-2.43272058232e-07
-4.50491376734e-09
-2.13404580204e-10
-2.15386684455e-11
-2.61010637356e-12
-2.9603504824e-13
-2.94696244568e-14
-2.54541359643e-15
-1.90538556778e-16
-1.23683430922e-17
-6.97876156113e-19
-3.4354043924e-20
-1.50568472473e-21
-6.86887071976e-23
-3.56241111469e-24
-3.2034139257e-05
-0.000374061371195
-0.00310400899386
-8.2693535815e-05
-5.76300108829e-06
-2.37374514885e-07
-8.41789538502e-09
-3.92132107772e-10
-4.28472259485e-11
-5.86899942721e-12
-7.48300650078e-13
-8.19348697467e-14
-7.62686716927e-15
-6.05326181567e-16
-4.11052993216e-17
-2.39734202035e-18
-1.20558419461e-19
-5.34377332626e-21
-2.45994314989e-22
-1.16924331802e-23
-9.00636919181e-06
-6.25927048698e-05
-0.000373328461035
-4.22795601678e-05
-2.9179143536e-06
-1.26462854282e-07
-8.6399535801e-09
-4.81714404467e-10
-6.1182231425e-11
-9.80233217937e-12
-1.45140723272e-12
-1.80272445012e-13
-1.8587508059e-14
-1.60207968648e-15
-1.16203027616e-16
-7.13400035639e-18
-3.72519248525e-19
-1.69551682901e-20
-7.96818741849e-22
-3.51817007328e-23
-2.93360060678e-06
-2.08677971726e-05
-0.000311818705128
0.000752712750224
-7.50941962231e-05
-1.04822425135e-06
-2.48907402434e-08
-7.09340028563e-10
-8.40804954814e-11
-1.45493600921e-11
-2.43222322542e-12
-3.40713275315e-13
-3.90488368544e-14
-3.68211072713e-15
-2.87874610052e-16
-1.87883118529e-17
-1.02931235035e-18
-4.86346807587e-20
-2.35339666456e-21
-9.7714293555e-23
-2.94029604307e-06
-3.44180674163e-05
-0.000868062081393
0.00211887693361
-0.000271798300087
-3.59272257012e-06
-7.89608701183e-08
-1.69599534101e-09
-1.41624015655e-10
-2.25908665058e-11
-3.94335693598e-12
-6.00103679989e-13
-7.51037649663e-14
-7.68907365979e-15
-6.46767924809e-16
-4.49518169346e-17
-2.5946585103e-18
-1.28059903929e-19
-6.41308263685e-21
-2.53072620153e-22
-4.89886977632e-06
-5.74862027472e-05
-0.00122800493152
0.00240531955327
-0.000413838498807
-8.71127963414e-06
-2.41452254387e-07
-5.86836630785e-09
-3.13267961804e-10
-4.03696538143e-11
-6.70758251065e-12
-1.04967952366e-12
-1.38971331455e-13
-1.51689925062e-14
-1.35921849886e-15
-1.00146533877e-16
-6.08604670698e-18
-3.14453702345e-19
-1.6332382468e-20
-6.18085781139e-22
-4.65020571356e-06
-4.53648172995e-05
-0.000692399220324
-7.3169964902e-05
-0.000205748754441
-1.30638558226e-05
-4.71306666263e-07
-1.61469036366e-08
-6.04779573538e-10
-6.87280905511e-11
-1.11555091812e-11
-1.79297250795e-12
-2.48766021411e-13
-2.86657826804e-14
-2.71538481396e-15
-2.11067849152e-16
-1.34766876177e-17
-7.29229311349e-19
-3.9304913551e-20
-1.43769570952e-21
-2.60651669396e-06
-1.91884903091e-05
-0.000189244465609
-0.000787293196245
-8.46268227597e-05
-5.997237222e-06
-2.51715918924e-07
-1.51086933299e-08
-7.16125599064e-10
-9.06184483093e-11
-1.601954329e-11
-2.79386062127e-12
-4.16904903081e-13
-5.12520521273e-14
-5.14945694027e-15
-4.22578691154e-16
-2.83607279076e-17
-1.6090235016e-18
-9.00522967419e-20
-3.20691236847e-21
-1.18140867179e-06
-6.92701781363e-06
-5.11164420173e-05
-0.000351675321757
0.000508117017897
-6.08168396831e-05
-1.0885674496e-06
-2.88486349862e-08
-1.01470184071e-09
-1.15650013946e-10
-2.12536182763e-11
-4.01889436228e-12
-6.51586505886e-13
-8.62462093354e-14
-9.24659781281e-15
-8.04029844777e-16
-5.68663196558e-17
-3.39071730243e-18
-1.97271768272e-19
-6.88671583146e-21
-6.52901251223e-07
-4.0476254703e-06
-3.58941630381e-05
-0.000518274863263
0.00118394116807
-0.000176225138007
-4.11369965364e-06
-1.13345147432e-07
-2.91729462385e-09
-1.94280567783e-10
-3.03602136699e-11
-5.74814637941e-12
-9.83664688395e-13
-1.3887173006e-13
-1.58513085719e-14
-1.46098715795e-15
-1.09050412185e-16
-6.84711529052e-18
-4.14511272642e-19
-1.42728483424e-20
-6.11035657729e-07
-4.41168561178e-06
-4.29056994095e-05
-0.000731747091868
0.00142002884017
-0.000238636297823
-1.27353071633e-05
-4.19795840568e-07
-1.19190868336e-08
-4.41688033819e-10
-5.09245417978e-11
-8.72361657901e-12
-1.4940283824e-12
-2.19257960185e-13
-2.6327043833e-14
-2.55869020898e-15
-2.01230211402e-16
-1.33080084095e-17
-8.38294940972e-19
-2.86154321911e-20
-6.77006800876e-07
-4.80594022198e-06
-4.29455901619e-05
-0.000653633121189
0.000799749721789
-0.000242436475881
-1.345895679e-05
-4.47537869616e-07
-1.79762050575e-08
-6.2253835336e-10
-7.17930376881e-11
-1.24028670105e-11
-2.19081965438e-12
-3.35923196286e-13
-4.23719390267e-14
-4.3334309173e-15
-3.58684816204e-16
-2.49805632348e-17
-1.63655372021e-18
-5.56117224448e-20
-6.12149313674e-07
-3.86840240708e-06
-2.949049319e-05
-0.000342025365354
-9.82196592165e-05
-0.000145532103974
-8.41436834769e-06
-2.70714941793e-07
-1.20659605738e-08
-6.39684953341e-10
-8.33160238001e-11
-1.56472105308e-11
-2.97794809648e-12
-4.88167408845e-13
-6.53879549915e-14
-7.07029760253e-15
-6.17279852564e-16
-4.53288562502e-17
-3.08839467971e-18
-1.04857608185e-19
-4.62444613274e-07
-2.57715847701e-06
-1.69519416549e-05
-0.000157859873188
-9.5020980774e-05
-8.93556880405e-05
-5.47358417935e-06
-1.63020239136e-07
-7.00268376237e-09
-5.79707909505e-10
-8.63057835775e-11
-1.79377464847e-11
-3.74974966653e-12
-6.68180427245e-13
-9.61455106037e-14
-1.10693873719e-14
-1.02370078433e-15
-7.94617504766e-17
-5.63378739296e-18
-1.91765628273e-19
-3.37109536831e-07
-1.73883005254e-06
-1.06556870181e-05
-8.99693784851e-05
-0.000230404738648
0.000647875557175
-9.13387528333e-05
-2.35094359194e-06
-5.94506213931e-08
-1.56068376961e-09
-1.16161738002e-10
-2.1322499617e-11
-4.60218859445e-12
-8.78366107463e-13
-1.35631044256e-13
-1.66644490303e-14
-1.63676466286e-15
-1.34571905675e-16
-9.93297137154e-18
-3.39935997452e-19
-2.6904476867e-07
-1.35373125693e-06
-8.165903549e-06
-6.6140534732e-05
-0.000380372634698
0.000809290554034
-0.000149393050804
-7.65658911174e-06
-2.32418719661e-07
-6.42751971565e-09
-2.31479503746e-10
-2.98058342971e-11
-5.88442511312e-12
-1.14564066242e-12
-1.86455903407e-13
-2.43031620958e-14
-2.53180487745e-15
-2.205157826e-16
-1.6937088892e-17
-5.83943293487e-19
-2.4751232639e-07
-1.23440619744e-06
-7.34840469162e-06
-5.69104246379e-05
-0.000483599533677
0.000877789743064
-0.000204103648644
-1.08232347837e-05
-3.22441294949e-07
-1.10704907044e-08
-3.33291222113e-10
-3.91680296293e-11
-7.43380943821e-12
-1.47175989642e-12
-2.50457292637e-13
-3.44587302711e-14
-3.79893671031e-15
-3.50201079957e-16
-2.79535251074e-17
-9.7201725891e-19
-2.43699700501e-07
-1.17376408487e-06
-6.66428449591e-06
-4.77345720046e-05
-0.000440009846108
0.000559021194144
-0.000198874181782
-1.09143309518e-05
-3.11801522903e-07
-1.01054012586e-08
-3.91379277882e-10
-4.58584566015e-11
-8.85812491972e-12
-1.82296839506e-12
-3.2630757759e-13
-4.7422852904e-14
-5.5308384586e-15
-5.3931762024e-16
-4.46710409756e-17
-1.56748313183e-18
-2.44384478812e-07
-1.12120130814e-06
-6.02112419214e-06
-3.99876110284e-05
-0.000333837218784
0.000348987569353
-0.00016290990633
-9.46715454721e-06
-3.05970288027e-07
-9.82630418029e-09
-4.35839174617e-10
-4.95609540977e-11
-9.90721852787e-12
-2.15489334346e-12
-4.09658645528e-13
-6.31618143304e-14
-7.80552364211e-15
-8.05274746067e-16
-6.91139204836e-17
-2.44778142605e-18
-2.42839190633e-07
-1.05466408898e-06
-5.34133986945e-06
-3.29579532659e-05
-0.000247096023841
0.000255529118221
-0.00013201932079
-7.78358433541e-06
-3.52038777065e-07
-1.13507975157e-08
-5.00101392077e-10
-5.0947644447e-11
-1.04634656961e-11
-2.4227242498e-12
-4.93295227252e-13
-8.11526750122e-14
-1.06596869639e-14
-1.16480083213e-15
-1.03469873214e-16
-3.6992000457e-18
-2.37185491724e-07
-9.74327503881e-07
-4.6602634805e-06
-2.68512148148e-05
-0.000182520322412
8.49192644095e-05
0.000185380782024
-4.54146896242e-05
-1.96310496576e-06
-5.01624728082e-08
-1.30749425273e-09
-6.39119478566e-11
-1.1208250786e-11
-2.64179627004e-12
-5.71714048056e-13
-1.00494242698e-13
-1.40661015189e-14
-1.63024837179e-15
-1.49740274019e-16
-5.40503235557e-18
-2.33600693866e-07
-9.15143334653e-07
-4.1798822063e-06
-2.28244780765e-05
-0.000144075903486
-9.53848425638e-05
0.000516640800951
-0.000112257558896
-5.38253535203e-06
-1.32949520915e-07
-3.37224188419e-09
-9.26742071845e-11
-1.26043596994e-11
-2.85655884495e-12
-6.43910487147e-13
-1.20328619234e-13
-1.79451897537e-14
-2.20706983416e-15
-2.09341292682e-16
-7.63023902682e-18
-2.36179967896e-07
-8.87477443256e-07
-3.89040916799e-06
-2.02189398918e-05
-0.000118746549075
-0.000184498152408
0.000499644208225
-0.000149167088365
-8.04119764542e-06
-2.09980256718e-07
-5.20401274939e-09
-1.34878365329e-10
-1.46452022231e-11
-3.09730284067e-12
-7.12313513006e-13
-1.4023508636e-13
-2.22129768815e-14
-2.89530328117e-15
-2.82968044236e-16
-1.04137459148e-17
-2.47133842174e-07
-8.9333514204e-07
-3.76657644506e-06
-1.86699230447e-05
-0.000102083263483
-0.000216263161644
0.000479465495427
-0.000163642340494
-9.77564756384e-06
-2.93803008391e-07
-7.3426608793e-09
-1.97085528758e-10
-1.72935045105e-11
-3.37285586638e-12
-7.79466503545e-13
-1.60134679522e-13
-2.68073577145e-14
-3.69232854903e-15
-3.70702000495e-16
-1.37705427014e-17
-2.6737784107e-07
-9.30527651274e-07
-3.77502294938e-06
-1.78538993879e-05
-9.07950127321e-05
-0.000216150042527
0.00044651086397
-0.000164252391082
-1.04830806292e-05
-3.96012011037e-07
-1.00951508219e-08
-2.81625996287e-10
-2.00825414366e-11
-3.63574331179e-12
-8.41600267166e-13
-1.79507364662e-13
-3.16325637823e-14
-4.58963403726e-15
-4.71759037181e-16
-1.76827463038e-17
-2.96549577704e-07
-9.92910656326e-07
-3.87145705984e-06
-1.74405046078e-05
-8.21902129324e-05
-0.0001975785592
0.000397445403652
-0.000156412734583
-1.07409152786e-05
-4.56570454822e-07
-1.16786887875e-08
-3.44106779421e-10
-2.14020550705e-11
-3.75301470049e-12
-8.83985845449e-13
-1.96552102016e-13
-3.64576996705e-14
-5.56276441372e-15
-5.83596001134e-16
-2.20668349932e-17
-3.33594589768e-07
-1.07325639607e-06
-4.01447079172e-06
-1.71629150131e-05
-7.4376382752e-05
-0.000172003305416
0.000347366125046
-0.000144721162868
-1.04755150663e-05
-4.98978244596e-07
-1.26548421641e-08
-3.64396539912e-10
-2.04932711568e-11
-3.63623778024e-12
-8.91162178083e-13
-2.08708832971e-13
-4.09093028192e-14
-6.56592029465e-15
-7.01315807978e-16
-2.67513552126e-17
-3.79151321961e-07
-1.17198311772e-06
-4.20138532293e-06
-1.69840646747e-05
-6.71948065521e-05
-0.000145271894476
0.000306087624546
-0.00013218924988
-1.0011187232e-05
-5.32933520973e-07
-1.37977389449e-08
-3.58023902775e-10
-1.80858272312e-11
-3.3120408563e-12
-8.58110375766e-13
-2.13956363209e-13
-4.45747449205e-14
-7.5378874148e-15
-8.18229143804e-16
-3.15006106001e-17
-4.37079368248e-07
-1.29920035238e-06
-4.46094744424e-06
-1.6978513322e-05
-6.09889512912e-05
-0.000122240558185
0.000268957690893
-0.000101648971015
-1.31761432135e-05
-7.51741159647e-07
-2.0487026641e-08
-4.34742152524e-10
-1.69482647578e-11
-2.92336780583e-12
-7.93947993797e-13
-2.11719374323e-13
-4.71132211779e-14
-8.41146169907e-15
-9.26777669472e-16
-3.60489615073e-17
-5.16349110587e-07
-1.47778196719e-06
-4.85541683592e-06
-1.73237235413e-05
-5.65636015285e-05
-0.000108613425007
0.000197668329511
6.99935883426e-05
-4.23217306955e-05
-2.51503280716e-06
-7.74467337447e-08
-1.43802831905e-09
-2.8385982252e-11
-2.83770900012e-12
-7.27452296045e-13
-2.03743047745e-13
-4.83742745138e-14
-9.12339887795e-15
-1.0190153022e-15
-4.01010820377e-17
-6.28246762091e-07
-1.72906577736e-06
-5.41156787959e-06
-1.79660236022e-05
-5.3323003673e-05
-9.9178945694e-05
0.000135669114652
0.000144280682589
-7.03316827186e-05
-4.72025261545e-06
-1.60340895125e-07
-3.09657815108e-09
-5.53364410391e-11
-3.15862229698e-12
-6.78984447255e-13
-1.9270288589e-13
-4.84114517289e-14
-9.62406368594e-15
-1.08723623698e-15
-4.33333831439e-17
-7.85931296217e-07
-2.07088681541e-06
-6.12464610967e-06
-1.87484303679e-05
-5.05444738091e-05
-9.03777633324e-05
9.8082559774e-05
0.000160570759069
-8.65156113816e-05
-6.3664280263e-06
-2.45745616744e-07
-5.03339135231e-09
-9.06813871868e-11
-3.67093896093e-12
-6.4564442674e-13
-1.80264513069e-13
-4.73867518016e-14
-9.88520857617e-15
-1.12558765449e-15
-4.54596310777e-17
-1.0061657403e-06
-2.52048529409e-06
-6.97531669926e-06
-1.95318573513e-05
-4.78886669786e-05
-8.10962396599e-05
7.48194237545e-05
0.00016721696405
-9.45237223787e-05
-7.47730464486e-06
-3.18169005877e-07
-8.19161077421e-09
-1.40618413367e-10
-4.33188366689e-12
-6.21130314086e-13
-1.67197780743e-13
-4.55019224017e-14
-9.90391343526e-15
-1.13187745656e-15
-4.63294288085e-17
-1.30993082108e-06
-3.09337510321e-06
-7.9373179109e-06
-2.02600888581e-05
-4.5492698075e-05
-7.25966906413e-05
6.57365211573e-05
0.000165877331461
-9.75104391153e-05
-8.18886916598e-06
-3.86467291856e-07
-1.19493617199e-08
-2.38199657759e-10
-5.57367111976e-12
-6.13470286846e-13
-1.54526556984e-13
-4.30013648691e-14
-9.70099452863e-15
-1.10788926033e-15
-4.59587623736e-17
-1.71618599902e-06
-3.78900222323e-06
-8.958818128e-06
-2.08964376779e-05
-4.34212672635e-05
-6.46507832723e-05
6.51873365236e-05
0.000156354655533
-9.69717663892e-05
-8.56861305141e-06
-4.48327406067e-07
-1.67281953709e-08
-4.09937487638e-10
-8.143887916e-12
-6.38731057147e-13
-1.43621370258e-13
-4.01643350492e-14
-9.31448085554e-15
-1.05809668241e-15
-4.44730489766e-17
-2.23078695142e-06
-4.58011302949e-06
-9.97572481495e-06
-2.14451584141e-05
-4.16603200693e-05
-5.65456138889e-05
7.09534624936e-05
0.000138203497616
-9.33839391618e-05
-8.64630026474e-06
-4.89235401176e-07
-2.24700928748e-08
-6.6780070869e-10
-1.32036939701e-11
-7.15781323105e-13
-1.35787348083e-13
-3.72742928531e-14
-8.79300116693e-15
-9.88309640298e-16
-4.20450426046e-17
-2.83860286624e-06
-5.42183772863e-06
-1.09516455184e-05
-2.19628197344e-05
-4.00696407581e-05
-4.7277740013e-05
8.1887114277e-05
0.000109191291275
-8.61973023212e-05
-8.35438179012e-06
-5.09582344933e-07
-2.7547955528e-08
-9.81477558301e-10
-2.1797891645e-11
-8.57011009229e-13
-1.31518548318e-13
-3.45514357165e-14
-8.1884516817e-15
-9.04948014422e-16
-3.88775622268e-17
-3.51490052027e-06
-6.28816442915e-06
-1.19130793896e-05
-2.25040196026e-05
-3.82316273137e-05
-3.52435145475e-05
9.93195236269e-05
6.00184945963e-05
-7.30138257238e-05
-7.22415996148e-06
-5.21080997577e-07
-3.2244127965e-08
-1.35752006436e-09
-3.52609602733e-11
-1.08681516705e-12
-1.30976605169e-13
-3.21360357868e-14
-7.5492981584e-15
-8.14476159978e-16
-3.52012424138e-17
-4.26079086177e-06
-7.20767800262e-06
-1.29182921146e-05
-2.29612293524e-05
-3.50683577381e-05
-1.68224992495e-05
0.000132838614655
-4.91757245879e-05
-4.44155181282e-05
-4.65657002429e-06
-4.09930803969e-07
-3.05433262709e-08
-1.54981594951e-09
-4.88496550521e-11
-1.37501213709e-12
-1.3209948701e-13
-2.99461325667e-14
-6.90243280035e-15
-7.2193271457e-16
-3.12361429935e-17
-5.14784367106e-06
-8.29608360128e-06
-1.4109257451e-05
-2.33818170789e-05
-3.05511369169e-05
4.68646770118e-06
0.00015491570757
-0.000106160653718
-1.89774091344e-05
-2.34856545845e-06
-2.52300186487e-07
-2.28544690697e-08
-1.43369039766e-09
-5.55252400798e-11
-1.64161528096e-12
-1.31422505503e-13
-2.76781965411e-14
-6.24119162848e-15
-6.29639184692e-16
-2.7138838454e-17
-6.29427538888e-06
-9.69205610461e-06
-1.56084096211e-05
-2.38109816509e-05
-2.51062490383e-05
2.31427726407e-05
0.000148696265013
-8.31095137696e-05
-1.33603755724e-05
-1.73324984466e-06
-2.00172489569e-07
-1.97531424837e-08
-1.47149492767e-09
-6.6378680275e-11
-2.04385553851e-12
-1.31534105736e-13
-2.52798073269e-14
-5.55687314423e-15
-5.38646056585e-16
-2.30302961142e-17
-7.76217607306e-06
-1.13911741479e-05
-1.72011080542e-05
-2.35021732343e-05
-1.73187574555e-05
3.8514079508e-05
0.000130725268943
-7.54228053689e-05
-1.26069316995e-05
-1.74961248253e-06
-2.16239261107e-07
-2.2554652398e-08
-1.97111029566e-09
-1.00313247922e-10
-3.15742207394e-12
-1.44738886634e-13
-2.32751583555e-14
-4.88259421648e-15
-4.51582489167e-16
-1.90755667402e-17
-9.48363004625e-06
-1.31471481962e-05
-1.82167818126e-05
-2.0966624664e-05
-5.30465105534e-06
5.17727737647e-05
9.45326079674e-05
-6.65251224723e-05
-1.20146491798e-05
-1.84388198803e-06
-2.51999577374e-07
-2.87266969854e-08
-2.93905436395e-09
-1.71965714603e-10
-5.98935740827e-12
-1.94984835781e-13
-2.26783945863e-14
-4.30530500624e-15
-3.74071499013e-16
-1.55322838327e-17
-1.11658892114e-05
-1.43227493249e-05
-1.73203248166e-05
-1.38529350281e-05
1.30836810276e-05
6.98920398392e-05
7.06517256903e-06
-4.55386700416e-05
-9.20100286115e-06
-1.60646705677e-06
-2.4964438546e-07
-3.20621845529e-08
-3.89090135102e-09
-2.72601306385e-10
-1.1255555439e-11
-3.15149317426e-13
-2.44034580342e-14
-3.91527503378e-15
-3.12278180335e-16
-1.26704786418e-17
-1.23339934857e-05
-1.41016949502e-05
-1.33305406741e-05
-1.83868595676e-06
3.20129949805e-05
8.20973352814e-05
-7.22965905967e-05
-2.09122249669e-05
-4.97571426319e-06
-1.02390161007e-06
-1.86237387689e-07
-2.74589669558e-08
-4.0614794006e-09
-3.55739801147e-10
-1.78881049995e-11
-5.22665320418e-13
-2.82426209451e-14
-3.7030431876e-15
-2.67224428593e-16
-1.05930704204e-17
-1.22780708861e-05
-1.16242853891e-05
-5.95769877515e-06
1.17056804125e-05
4.35675152254e-05
4.5486341472e-05
-4.70678726884e-05
-1.31835899602e-05
-3.24508882265e-06
-7.16687986635e-07
-1.42452780615e-07
-2.29549071488e-08
-3.93592399442e-09
-4.17216466439e-10
-2.51981292019e-11
-8.29926616874e-13
-3.35208046144e-14
-3.57038876901e-15
-2.34391023772e-16
-9.19626680785e-18
-9.34711647276e-06
-5.0145081148e-06
6.08322201402e-06
2.75988723889e-05
5.40349856605e-05
-5.64277443912e-05
-2.09521919236e-05
-6.64923993414e-06
-1.84070212222e-06
-4.54833323746e-07
-1.00672129357e-07
-1.77682906298e-08
-3.51734067144e-09
-4.43256417862e-10
-3.29492632455e-11
-1.25292012147e-12
-4.01275609799e-14
-3.41352411178e-15
-2.07942027723e-16
-8.28536919851e-18
-2.0160693428e-06
6.15810825969e-06
2.10177179037e-05
4.03281392194e-05
-3.16946750777e-05
-2.48013556173e-05
-9.5804628376e-06
-3.26876241939e-06
-9.93057222048e-07
-2.70908284848e-07
-6.62610695063e-08
-1.26728217501e-08
-2.90307548266e-09
-4.29969981448e-10
-3.96891995753e-11
-1.78261748836e-12
-4.87929672884e-14
-3.16909402405e-15
-1.83377927659e-16
-7.65573415535e-18
9.55979530946e-06
1.86876016077e-05
2.61518091198e-05
-3.23254356986e-05
-2.152808936e-05
-1.00115733014e-05
-4.15192863087e-06
-1.53759716198e-06
-5.11973272413e-07
-1.53672980029e-07
-4.14440685279e-08
-8.45309814994e-09
-2.27866364136e-09
-3.97364100083e-10
-4.53895392519e-11
-2.43035339178e-12
-5.98356458753e-14
-2.77643437804e-15
-1.56117789891e-16
-7.02484829003e-18
-1.94342033898e-32
-1.65492577354e-33
-1.44470457991e-31
-1.71810412453e-32
-9.42907405027e-31
-1.17683990522e-31
-5.12594830753e-30
-5.58382353634e-31
-2.40332197908e-29
-2.26823068288e-30
-1.03961760574e-28
-8.74914550873e-30
-4.2931531344e-28
-3.29694001194e-29
-1.70694495517e-27
-1.21788871541e-28
-6.52656684787e-27
-4.39083428772e-28
-2.38775378514e-26
-1.53369733041e-27
-8.29247682308e-26
-5.1413626325e-27
-2.7098820249e-25
-1.62078319329e-26
-8.28143119696e-25
-4.77928659507e-26
-2.36410188692e-24
-1.32623471754e-25
-6.32960458946e-24
-3.46887396297e-25
-1.60142772065e-23
-8.6120821273e-25
-3.86318871745e-23
-2.04716864506e-24
-8.95805498696e-23
-4.69694944437e-24
-2.00774201817e-22
-1.04603717317e-23
-4.36109064109e-22
-2.26954076425e-23
-9.19241682359e-22
-4.79712703367e-23
-1.88247537452e-21
-9.87570019527e-23
-3.74932369113e-21
-1.98229554131e-22
-7.26405667727e-21