/*--------------------------------*- C++ -*----------------------------------*\
  =========                 |
  \\      /  F ield         | OpenFOAM: The Open Source CFD Toolbox
   \\    /   O peration     | Website:  https://openfoam.org
    \\  /    A nd           | Version:  dev
     \\/     M anipulation  |
\*---------------------------------------------------------------------------*/
FoamFile
{
    version     2.0;
    format      ascii;
    class       volScalarField;
    location    "0.3";
    object      edc::R_H2;
}
// * * * * * * * * * * * * * * * * * * * * * * * * * * * * * * * * * * * * * //

dimensions      [1 -3 -1 0 0 0 0];

internalField   nonuniform List<scalar> 
1629
(
3.04025075059e-24
3.5968094283e-24
5.222794506e-24
4.74691326944e-22
7.75553206733e-22
2.07043969847e-21
3.66008213039e-20
8.78245751261e-20
3.87527484895e-19
1.1617135885e-18
1.55654017035e-18
1.6172772101e-18
2.9033379849e-17
3.77433486518e-17
3.77084054962e-17
8.62090985026e-16
1.43874283709e-15
7.05190395513e-15
7.94909647628e-14
8.36144849529e-13
1.75160964075e-11
4.09777940329e-11
8.14741585067e-10
3.16207932271e-08
2.824212459e-10
2.66354233589e-09
4.04823560685e-08
8.95896444991e-10
3.8478232136e-09
2.08651101026e-08
1.36743052786e-09
2.53682544669e-09
-1.80026456954e-09
5.3954820602e-10
-1.38775150886e-09
-1.69404217195e-08
-2.69232303861e-09
-7.33690935967e-09
-1.8289913579e-08
-1.18766795425e-08
-2.40916335209e-08
-6.63619904863e-08
-3.62167404447e-08
-6.81006051662e-08
-2.0008516549e-07
-9.16064259791e-08
-1.61265193656e-07
-4.4975246676e-07
-1.93937782166e-07
-3.15038350196e-07
-7.74391808558e-07
-3.51392137154e-07
-5.27813119467e-07
-1.12629358019e-06
-5.62869724541e-07
-7.89066151948e-07
-1.49039770662e-06
-8.26700713456e-07
-1.09791603485e-06
-1.89548453278e-06
-1.15477598367e-06
-1.48240289011e-06
-2.4172785631e-06
-1.56731206561e-06
-1.96617525619e-06
-3.07504170632e-06
-2.06520239436e-06
-2.53253468822e-06
-3.77428415554e-06
-2.61831633158e-06
-3.12848445931e-06
-4.39787238457e-06
-3.17545470598e-06
-3.68605863219e-06
-4.83250587772e-06
-3.6660167031e-06
-4.11431326308e-06
-4.93063501912e-06
-3.95870461748e-06
-4.24682571282e-06
-4.44411440213e-06
-3.79513870226e-06
-3.77092154164e-06
-3.01767665717e-06
-2.79146002101e-06
-2.31657003779e-06
-4.42624185194e-07
-7.21845088354e-07
2.01072554215e-07
2.94562764522e-06
2.06854511851e-06
3.23292174686e-06
6.21547068024e-06
4.61620524463e-06
5.70969962949e-06
8.2300727762e-06
5.8033818845e-06
6.56344069746e-06
8.1459506446e-06
4.85514349936e-06
5.14931284242e-06
5.62304954852e-06
1.56954715234e-06
1.39215860481e-06
8.19302292821e-07
-3.74360761503e-06
-4.31849164845e-06
-5.6957994287e-06
-1.04342137365e-05
-1.12433700572e-05
-1.29930172208e-05
-1.74705285447e-05
-1.82396298973e-05
-1.96939388141e-05
-2.31552016295e-05
-2.35125765706e-05
-2.38230639333e-05
-2.50656164377e-05
-2.46117042504e-05
-2.29542990022e-05
-2.05018863409e-05
-1.89242411116e-05
-1.47132846786e-05
-6.79195150379e-06
-3.85757702285e-06
3.4236828359e-06
1.95626667287e-05
2.41974601232e-05
3.53542581288e-05
6.47176690289e-05
7.16607177027e-05
8.8120303353e-05
0.000139849457513
0.000150118279525
0.000174240680695
0.000264319076045
0.000279507658476
0.000314961256063
0.000469695112248
0.000492165262951
0.000544345117728
0.00080336063598
0.000836333234753
0.000912521818071
0.00132678801703
0.00137401283031
0.00148252992908
0.00209806101139
0.00216260735342
0.00231000632599
0.00313242939886
0.00321482840635
0.00340175193961
0.00436281224595
0.00445996140369
0.0046789865772
0.00564499489836
0.0057512557533
0.00598962845467
0.006821993358
0.00693187910773
0.00717751533815
0.00779638282451
0.00790612919421
0.00815088452431
0.00853117752001
0.00863789344147
0.0088752412214
0.00898301204397
0.00908288864191
0.00930438428101
0.00906915811442
0.00915759660095
0.00935294496869
0.00872628528487
0.00879971081852
0.00896116989223
0.00799816910196
0.00805443148929
0.00817740435238
0.00722316980053
0.00726643812171
0.00736083574829
0.0070333942403
0.00707544374533
0.00716902921054
0.00813522280446
0.00820767996182
0.00837505609626
4.72305505284e-19
2.0384185111e-17
5.35072407073e-14
3.32334392994e-10
1.27015874375e-06
5.69100210254e-07
9.71702371288e-08
-5.26285588701e-08
-6.61238759676e-08
1.37447793143e-07
-6.27200510176e-08
-6.09075758641e-07
-1.45724276718e-06
-2.20326368923e-06
-2.7203111831e-06
-3.12652179982e-06
-3.59380360911e-06
-4.3386712022e-06
-5.2448710029e-06
-5.9688477916e-06
-6.2786476045e-06
-5.99935009577e-06
-4.94736981073e-06
-2.88794499679e-06
3.39027025222e-07
4.40111741848e-06
8.39032422825e-06
1.1177365855e-05
1.18710664185e-05
1.00738101547e-05
5.86183534247e-06
-3.59056081822e-07
-7.79116712873e-06
-1.52225864642e-05
-2.09919802457e-05
-2.29823406678e-05
-1.89836523055e-05
-6.92298530406e-06
1.57815740322e-05
5.3569889535e-05
0.000114437955985
0.000212294208267
0.000370324706073
0.000625107743591
0.00102940858545
0.00164739440982
0.002531530973
0.00367958592977
0.00500126206504
0.006337574094
0.00753405856873
0.00850476774839
0.00921711531603
0.00962196323022
0.0096314449898
0.00918982315684
0.00834995398619
0.00749293792737
0.00730431015681
0.00863163390545
3.36947927122e-24
5.11727376557e-24
7.8942470134e-24
1.21484562716e-23
1.24232578577e-23
7.77056622971e-24
3.12836571785e-24
8.8043879293e-25
1.87228001723e-25
3.14815443407e-26
4.28110840868e-27
4.77403078582e-28
4.41007428568e-29
3.40474597236e-30
2.21717974394e-31
1.23127139222e-32
5.91999069147e-34
2.50997114133e-35
9.7902340017e-37
6.71266102824e-38
5.81762247836e-23
1.07140391935e-23
-4.69768670308e-22
-1.33974829993e-21
-7.3241745475e-22
-7.22674255607e-23
3.10737849955e-23
1.22717110843e-23
2.51886820986e-24
3.82031912411e-25
4.65169116395e-26
4.6748220928e-27
3.93028318421e-28
2.79318685863e-29
1.69591744499e-30
8.91281652499e-32
4.1304671826e-33
1.72723004331e-34
6.78359625265e-36
4.87227806744e-37
-3.77658306564e-23
-4.59299188139e-21
-8.69244529906e-20
-2.76204955976e-19
-1.47978454169e-19
-2.52806657184e-20
-1.75109642628e-21
1.31861658159e-23
1.78045560803e-23
2.80934170268e-24
3.18663762165e-25
2.95721548949e-26
2.31114122621e-27
1.54080558371e-28
8.86543763964e-30
4.46717845234e-31
2.01303331159e-32
8.36962735122e-34
3.33410985346e-35
2.3992173489e-36
9.10001502163e-21
-2.02392011387e-18
-1.33694778029e-17
-3.01196788085e-17
-1.40188821197e-17
-2.15274295615e-18
-1.41136027821e-19
-4.96964667259e-21
-1.1445534849e-23
1.61570205681e-23
1.9687618198e-24
1.76114333519e-25
1.31834736322e-26
8.46461482383e-28
4.72310525731e-29
2.32576177954e-30
1.03404960135e-31
4.30510866826e-33
1.78459932308e-34
1.51753763338e-35
-1.34932461299e-16
-1.37806776599e-15
-4.27700461791e-15
-4.12133860565e-15
-1.3583273087e-15
-1.63769776027e-16
-9.34762081958e-18
-3.11646498664e-19
-6.03151664506e-21
7.01093058715e-24
1.08648705792e-23
1.01370820733e-24
7.36085770359e-26
4.58686639111e-27
2.50155674334e-28
1.21310569699e-29
5.35550244962e-31
2.24131774552e-32
9.72266710602e-34
1.0454785955e-34
-4.45378450868e-13
-2.25111024737e-11
-4.58122033174e-12
-7.69721456294e-13
-1.33796899194e-13
-1.14018191623e-14
-5.35310297939e-16
-1.5052851422e-17
-2.77865597648e-19
-3.16290594523e-21
2.72374950477e-23
5.21228415859e-24
3.83554354011e-25
2.34155588766e-26
1.25634768268e-27
6.03406524297e-29
2.65596366971e-30
1.11762842124e-31
5.02048294673e-33
5.96326448004e-34
7.39281979512e-09
4.09957288476e-07
-9.48659846679e-09
-4.19789049189e-10
-1.5072354761e-11
-7.45949717624e-13
-2.3693851173e-14
-5.46783506095e-16
-8.83600554344e-18
-1.00645777801e-19
-6.86630989529e-22
1.89735197595e-23
1.78349699848e-24
1.09481830336e-25
5.83962397363e-27
2.79822720831e-28
1.23342846133e-29
5.21389359815e-31
2.39367790582e-32
2.8861971206e-33
0.000197896578825
0.113634561304
5.7790395937e-05
-1.8089204396e-07
-1.73313815008e-09
-2.60867648083e-11
-6.59297098914e-13
-1.17151244007e-14
-1.75112073244e-16
-2.05403362526e-18
-1.731505874e-20
-3.3150731474e-23
6.74583489049e-24
4.5506730803e-25
2.46149031702e-26
1.18993826462e-27
5.28607854039e-29
2.24608609231e-30
1.04473071561e-31
1.20589840253e-32
2.17523155892e-05
0.0902524104439
-4.58812890137e-05
-1.99636159957e-07
-3.66591805585e-09
-7.9767062193e-11
-2.99790364164e-12
-8.46853516018e-14
-1.61072256938e-15
-2.24560683964e-17
-2.30428029818e-19
-1.56641426208e-21
1.44599204324e-23
1.62435630818e-24
9.27656206006e-26
4.5924433123e-27
2.07318474726e-28
8.88073615652e-30
4.16998806743e-31
4.43674369403e-32
6.42477064314e-07
0.00691840037118
-1.27245124347e-05
-8.51728246898e-08
-3.9582592105e-09
-1.42609085754e-10
-7.70609285801e-12
-3.39564813025e-13
-9.0434959307e-15
-1.65113162114e-16
-2.11842152272e-18
-1.87933071942e-20
-6.13897199553e-23
4.67567901372e-24
3.1163521509e-25
1.60776194551e-26
7.43517648629e-28
3.22280492152e-29
1.52670428957e-30
1.46772098668e-31
-8.91910208954e-07
0.000377357899062
-2.4727004629e-05
-1.20446872773e-07
-6.35600274917e-09
-3.08759730183e-10
-1.94297551989e-11
-1.13494191955e-12
-4.14770384115e-14
-9.71989750339e-16
-1.51607364214e-17
-1.63626534123e-19
-1.14829567885e-21
7.5380194919e-24
9.30736728521e-25
5.14466111756e-26
2.4525751174e-27
1.07915650978e-28
5.15911156816e-30
4.44129466941e-31
2.28931330243e-07
0.00637519980603
0.00998868326215
-6.89453003709e-06
-2.35497159312e-07
-3.74703840131e-09
-1.10088771049e-10
-5.37829398587e-12
-2.09462561979e-13
-5.25074289958e-15
-9.73041874373e-17
-1.24020843872e-18
-1.0904360233e-20
-3.5438128489e-23
2.36149548965e-24
1.51701739723e-25
7.50510377329e-27
3.35874044844e-28
1.62174783885e-29
1.24682276018e-30
9.03689923038e-06
0.0231337834032
0.310655943923
-0.000665518286235
-1.44397439899e-06
-2.05887967368e-08
-4.27057640403e-10
-2.05554712806e-11
-8.677073381e-13
-2.82514334211e-14
-5.80167129968e-16
-8.37253326017e-18
-8.4746953004e-20
-5.45861109811e-22
3.67921650006e-24
4.09885120921e-25
2.14391856777e-26
9.78525439432e-28
4.77562108324e-29
3.2858685049e-30
4.71453056675e-06
0.0111252847822
1.23743838996
-0.00112989547967
-1.93824063813e-06
-3.936068242e-08
-1.05354467538e-09
-5.84967192766e-11
-3.38900158288e-12
-1.24434819017e-13
-3.05628498343e-15
-4.93226297709e-17
-5.78525144507e-19
-4.65511256685e-21
-1.19631434001e-23
9.6716653372e-25
5.71978714378e-26
2.67938975595e-27
1.32460534144e-28
8.20044208074e-30
-1.67632488025e-06
0.0064275114212
1.13817072497
-0.00173544698238
-3.22951171553e-06
-5.44629889452e-08
-2.47031228127e-09
-1.61190657199e-10
-1.07609917176e-11
-4.90090709114e-13
-1.42306486308e-14
-2.64421217931e-16
-3.52539367715e-18
-3.25088189023e-20
-1.81662646324e-22
1.57925584121e-24
1.41326328256e-25
6.91157365124e-27
3.47461843851e-28
1.95144576618e-29
-9.20498643996e-06
0.00206325769384
0.150473379379
-0.262291746278
-0.000235170378254
-1.35197615396e-06
-1.65964826216e-08
-5.01699000448e-10
-3.19952135105e-11
-1.60557104463e-12
-5.52840760119e-14
-1.25252462463e-15
-1.88918133357e-17
-1.97126058223e-19
-1.39469839709e-21
-1.88172181449e-24
3.13491898916e-25
1.68105330816e-26
8.64790711338e-28
4.44890192269e-29
-1.15630126899e-05
0.00120945740015
0.0599940370991
-0.0281475195311
-0.00104185730536
-3.59937415505e-06
-4.9474253991e-08
-1.16136417393e-09
-7.54039507546e-11
-4.76336174888e-12
-1.96903879363e-13
-5.08990273498e-15
-8.82978066816e-17
-1.04807493062e-18
-8.60533405311e-21
-3.88440534433e-23
5.53156340071e-25
3.84539151908e-26
2.04779510159e-27
9.75524997411e-29
-1.03822377129e-05
0.000828640190988
0.0280406676997
0.662812795986
-0.00116413860289
-2.66138052769e-06
-5.38365433793e-08
-1.69063642614e-09
-1.35488323025e-10
-9.77846683187e-12
-5.45977961556e-13
-1.77626094688e-14
-3.46963593043e-16
-4.91975506426e-18
-4.60509027158e-20
-2.76994208204e-22
2.4993488037e-25
8.1688585388e-26
4.62596358234e-27
2.06374471023e-28
-8.88970199527e-06
0.000573567464921
0.0158457504682
0.786569289181
-0.00145502752004
-1.79023894792e-06
-3.67854774264e-08
-2.13181431753e-09
-2.09458951725e-10
-2.02661260921e-11
-1.34951022959e-12
-5.49754991749e-14
-1.27961839698e-15
-2.07097792329e-17
-2.20090248908e-19
-1.55621469022e-21
-4.72673393413e-24
1.53586577095e-25
9.98342129e-27
4.22793105554e-28
-7.85350111129e-06
0.000472760363815
0.0111648213237
0.726860111715
-0.00364059548715
-5.46726694958e-06
-5.68192103414e-08
-3.30834586468e-09
-3.50214338015e-10
-3.95884482272e-11
-3.20639205266e-12
-1.38174862453e-13
-4.33972737705e-15
-7.97904092074e-17
-9.59508286681e-19
-7.70724513164e-21
-3.64099503975e-23
2.06909640527e-25
2.05606585484e-26
8.39310838077e-28
-7.96253789528e-06
0.00037205793773
0.00607811109976
0.650888536931
-0.362161119181
-0.00091236123255
-4.60131881169e-06
-5.59593376026e-08
-1.2536269791e-09
-9.4303179681e-11
-7.73759493591e-12
-4.0764061794e-13
-1.37731343094e-14
-2.85993895002e-16
-3.87147478292e-18
-3.48969476829e-20
-1.99777381152e-22
-1.39099639893e-25
3.99789661507e-26
1.62141769942e-27
-7.46300147984e-06
0.000287617894697
0.00360675320478
0.322972114745
-0.0890089838411
-0.00270431553886
-8.52419697458e-06
-1.21328099846e-07
-2.447143282e-09
-1.85704762295e-10
-1.67680057837e-11
-1.08534292315e-12
-4.04404716329e-14
-9.34644709259e-16
-1.4517200128e-17
-1.4636912451e-19
-9.55267938162e-22
-2.92362597589e-24
7.08600845569e-26
3.04671939092e-27
-4.95034125729e-06
0.000216308724962
0.00194994199058
0.0988826740119
0.415529298738
-0.00267924270885
-5.42748128592e-06
-8.49648840023e-08
-3.05604521998e-09
-2.77288528815e-10
-3.05526095356e-11
-2.28208971322e-12
-1.08705749015e-13
-2.72859228377e-15
-5.06081969843e-17
-5.7091318943e-19
-4.17731541439e-21
-1.76494603975e-23
1.00500120981e-25
5.58692623448e-27
-7.63978902924e-07
0.000168094275218
0.00116102614177
0.0386216707039
0.487957031863
-0.00375778618968
-5.73499934953e-06
-6.87778745683e-08
-3.60352620524e-09
-3.65829307798e-10
-4.97581129723e-11
-4.48196626436e-12
-2.66783640562e-13
-7.93909475177e-15
-1.64131817708e-16
-2.07625819366e-18
-1.69751095664e-20
-8.48613734757e-23
2.65577345149e-26
9.88969008787e-27
4.39235493155e-06
0.000137042851575
0.000793374496299
0.0210257375699
0.447873804113
-0.288421943917
-0.000431532132038
-2.33589007759e-06
-2.75981218987e-08
-8.58144077229e-10
-8.73170575105e-11
-8.56386730398e-12
-5.03705580386e-13
-2.15405673299e-14
-4.97120730726e-16
-7.05867663179e-18
-6.4525523109e-20
-3.65906093281e-22
-6.58922318008e-25
1.67318655764e-26
9.82965453398e-06
0.000114440119768
0.000575599717027
0.0131607267837
0.469354618264
-0.181749132482
-0.00179832207468
-7.87783528221e-06
-9.20837894298e-08
-1.75985177913e-09
-1.5044553228e-10
-1.65195948266e-11
-1.07975871709e-12
-5.4143746278e-14
-1.40529215776e-15
-2.24502657818e-17
-2.30037505838e-19
-1.46203950059e-21
-4.13992616849e-24
2.57097353911e-26
1.52239074716e-05
9.83007274781e-05
0.000473088560047
0.00935083186316
0.433293792573
-0.0794708828262
-0.00414667552827
-1.10564500857e-05
-1.16160348001e-07
-2.54050451379e-09
-2.19513552041e-10
-2.67996167906e-11
-2.41331630361e-12
-1.2457581754e-13
-3.70155097951e-15
-6.67949721748e-17
-7.69981305751e-19
-5.47552272585e-21
-1.90529535439e-23
2.84971567905e-26
2.00860123051e-05
8.44956862994e-05
0.000410731163644
0.00692372451351
0.320618555023
0.159165442249
-0.00798328850041
-9.63981151408e-06
-9.33843555212e-08
-2.87926961132e-09
-2.74587551994e-10
-3.94061018651e-11
-4.42670512802e-12
-2.64994923831e-13
-7.84189373769e-15
-1.86691484271e-16
-2.42482834271e-18
-1.93251431795e-20
-7.73863950257e-23
-1.47336674263e-26
2.33149851018e-05
6.76804513402e-05
0.000321650201626
0.00473171646028
0.208518953163
0.313777331055
-0.0162608086906
-1.22612388785e-05
-8.92564947806e-08
-3.18584131266e-09
-3.17341148263e-10
-5.2651494451e-11
-6.480871159e-12
-5.24607883699e-13
-1.79818837907e-14
-4.93080823316e-16
-7.21553217145e-18
-6.45337628793e-20
-2.90857563448e-22
-2.75086745661e-25
2.41203715212e-05
5.03935156978e-05
0.000252074013037
0.00340065936533
0.135585261582
0.280878336687
-0.248320524011
-0.00066686889556
-2.99824713678e-06
-2.95352063425e-08
-7.57537117837e-10
-8.21478103972e-11
-1.02666464671e-11
-9.62729628152e-13
-4.08959498165e-14
-1.23581904541e-15
-2.03531940609e-17
-2.04505587612e-19
-1.02969368544e-21
-1.40288493947e-24
2.22292766652e-05
3.49111256006e-05
0.000208984839013
0.0026204194573
0.0890429446482
0.271431269832
-0.165201304271
-0.0023414817275
-9.53994323521e-06
-9.13963035824e-08
-1.49535318618e-09
-1.29092899523e-10
-1.66417755346e-11
-1.51687416504e-12
-8.83637529134e-14
-2.94486993102e-15
-5.44725234249e-17
-6.15703678953e-19
-3.45521191026e-21
-5.72086648683e-24
1.78624289513e-05
2.23501746319e-05
0.000188579286403
0.00219282454648
0.062231115378
0.290532333812
-0.122073562092
-0.00584191530806
-1.72024500555e-05
-1.35860429685e-07
-2.38200841361e-09
-1.86485461724e-10
-2.51353456784e-11
-2.19699853697e-12
-1.80065571169e-13
-6.65484032366e-15
-1.38329481555e-16
-1.76134244062e-18
-1.10156728116e-20
-2.10740366465e-23
1.16063416478e-05
1.37413352615e-05
0.000190368355323
0.00202808156273
0.0465473808089
0.298269641606
-0.0598444458048
-0.015629859406
-2.78819384127e-05
-1.92065891281e-07
-3.49230754144e-09
-2.47085323888e-10
-3.55070700225e-11
-3.95660424428e-12
-3.42128087966e-13
-1.42970929976e-14
-3.33639932438e-16
-4.79017347648e-18
-3.34091613473e-20
-7.260808821e-23
4.11367725405e-06
9.054748905e-06
0.000203570054243
0.00195987251141
0.0370385072099
0.284288368298
0.0359740900943
-0.110420549501
-0.000148644766498
-7.84161326529e-07
-9.20738807494e-09
-3.91869727637e-10
-4.98734323275e-11
-6.92929626315e-12
-6.06114680921e-13
-2.2891360574e-14
-7.67437650554e-16
-1.23937321746e-17
-9.64973742727e-20
-2.36835864278e-22
-4.01688911877e-06
6.80758407193e-06
0.000209963476446
0.00181904175597
0.0287258023939
0.239528221608
0.168966741504
-0.112636930493
-0.000584582392112
-2.65119969867e-06
-2.48954774988e-08
-6.50656197294e-10
-6.89433758922e-11
-9.86739562245e-12
-1.01908464359e-12
-3.94799940672e-14
-1.68858645357e-15
-3.05268902483e-17
-2.65557811455e-19
-7.34498475365e-22
-1.1612232435e-05
8.15655038738e-06
0.000219309169324
0.00172385570031
0.0232817719458
0.199993951069
0.16772380664
-0.129182336781
-0.00185688664713
-7.59233274334e-06
-5.86984085961e-08
-1.01162188276e-09
-9.3690385786e-11
-1.32963136963e-11
-1.60952871455e-12
-7.53620450394e-14
-3.5391362054e-15
-7.15742005231e-17
-6.96370087864e-19
-2.17177261987e-21
-1.69996629474e-05
1.49621681859e-05
0.000241714527664
0.00172785109992
0.0202628594034
0.171179903953
0.153074941666
-0.12989227034
-0.0050885345337
-1.74458352836e-05
-1.07468822841e-07
-1.58684660335e-09
-1.23659923491e-10
-1.78339071688e-11
-2.34947842696e-12
-1.39928613339e-13
-7.08223237453e-15
-1.59821260396e-16
-1.74166047139e-18
-6.13337663672e-21
-1.83285349669e-05
2.86262357127e-05
0.000281859974715
0.00183257889079
0.018865929721
0.150929917005
0.150070865417
-0.118676403451
-0.0163308242979
-3.58665866449e-05
-1.93061289534e-07
-2.54682098229e-09
-1.61945037414e-10
-2.34358488798e-11
-3.09175321279e-12
-2.46619660492e-13
-1.35823893387e-14
-3.40665808729e-16
-4.16296709647e-18
-1.65824064676e-20
-1.3852567046e-05
5.060187027e-05
0.000343443761416
0.00203580407824
0.0185069896909
0.134877195164
0.149059186711
-0.0960777693295
-0.0483064899356
-0.000117267835126
-5.76988765704e-07
-5.70786504243e-09
-2.36067126974e-10
-3.02514515239e-11
-3.96110739313e-12
-4.13638920192e-13
-2.48206947948e-14
-6.94331038032e-16
-9.52465855822e-18
-4.30090337292e-20
-2.00731401056e-06
8.32173467887e-05
0.000431669174746
0.00234047291878
0.0187616556502
0.119851516941
0.146518990501
-0.0648720916003
-0.0471344692622
-0.000344787083539
-1.59846174464e-06
-1.30352758668e-08
-3.5993192082e-10
-3.97981414635e-11
-5.27788628241e-12
-6.60292047277e-13
-4.35077020064e-14
-1.35275108989e-15
-2.08574276052e-17
-1.07094419534e-19
1.91543584753e-05
0.000130529415673
0.000555350046083
0.00276159092497
0.019407162657
0.106950859711
0.141410973234
-0.0241831709372
-0.0604739095324
-0.000916212125722
-4.05891434968e-06
-2.72931454821e-08
-5.33011066048e-10
-5.02125009939e-11
-7.24821253773e-12
-9.58478623425e-13
-6.93790336066e-14
-2.51790724678e-15
-4.36804307935e-17
-2.56051628483e-19
5.30472062173e-05
0.00019929448417
0.000729042630058
0.00332776055157
0.0203431775293
0.0957581954715
0.132986913939
0.0207967971791
-0.0769332773025
-0.00238797156802
-9.80648434322e-06
-5.34577151046e-08
-7.51847705638e-10
-6.17439025454e-11
-9.11230518473e-12
-1.33014049222e-12
-8.70763487739e-14
-4.48829734314e-15
-8.75137598049e-17
-5.88389432644e-19
0.000105757434729
0.000300336930199
0.000975082264671
0.00407678994789
0.0215027904646
0.0860785170553
0.121487180827
0.0606094285307
-0.0924755027324
-0.00673480162243
-2.22297124715e-05
-9.80373938307e-08
-1.12915749359e-09
-7.54332410412e-11
-1.10869495402e-11
-1.77689922112e-12
-1.1277688283e-13
-7.79144288721e-15
-1.67936015509e-16
-1.30191544165e-18
0.000187712408154
0.000451123845838
0.00132735262143
0.00505758737885
0.0228704136493
0.0780940474157
0.109366553175
0.0813842360063
-0.102789652901
-0.0174759255746
-5.51305671876e-05
-2.29488349576e-07
-2.02338226434e-09
-9.61493624274e-11
-1.34570591842e-11
-2.26011655255e-12
-1.49624179666e-13
-1.30051640777e-14
-3.08852658534e-16
-2.77824206372e-18
0.00031636507121
0.000679352540623
0.00183395135912
0.00632194152876
0.0244381736408
0.0718464526191
0.0991193274613
0.0839604092934
-0.107457272164
-0.0191503245345
-0.000142587166833
-6.09155923919e-07
-4.22749148123e-09
-1.32766224667e-10
-1.60600852978e-11
-2.76848229478e-12
-2.00461946629e-13
-2.08640363071e-14
-5.44010689501e-16
-5.72001730879e-18
0.000519827566265
0.0010262306806
0.00255424185127
0.00789718898064
0.0261082597869
0.0668092735442
0.0900371963645
0.0824294679793
-0.108190124153
-0.020809251047
-0.000319863622357
-1.48931415726e-06
-8.47012150211e-09
-1.88232993349e-10
-1.92686208138e-11
-3.31825718236e-12
-2.66899779043e-13
-3.21427926614e-14
-9.16750962692e-16
-1.13579868635e-17
0.000840787524223
0.00154805542442
0.00354987298311
0.00976658145332
0.0277437247248
0.0625782827677
0.0807719873674
0.0799585382311
-0.106490020806
-0.0237508598505
-0.00062705170349
-3.86886946892e-06
-1.77581007798e-08
-2.78643101919e-10
-2.33942348384e-11
-3.90395110722e-12
-3.49710722032e-13
-4.75484432407e-14
-1.48198048921e-15
-2.17489234337e-17
0.00133764201173
0.00231036909905
0.00486214921987
0.0118501325533
0.0291854558151
0.0587701983533
0.0724303970871
0.0770198828934
-0.103778650572
-0.0264685572969
-0.00121063699469
-8.93092839974e-06
-4.19185278406e-08
-4.64199130715e-10
-2.91527371644e-11
-4.56972592649e-12
-4.50870597694e-13
-6.76401177303e-14
-2.31370465955e-15
-4.01789402161e-17
0.00207522584206
0.00336586306197
0.00647665993021
0.0140016632216
0.0302901953673
0.0551534713793
0.0646844476684
0.073703740614
-0.101170603827
-0.028480275571
-0.00234896557677
-1.89020885168e-05
-1.03419438752e-07
-8.91798400078e-10
-3.91291177256e-11
-5.40967763884e-12
-5.74667232334e-13
-9.28293391285e-14
-3.47815445539e-15
-7.16462777672e-17
0.00309520559367
0.00471403636767
0.00829442749111
0.0160322814998
0.0309536075332
0.0515754036191
0.0574570300559
0.0697257082012
-0.0989835063559
-0.0296114499546
-0.00368925193036
-3.74322759469e-05
-2.58401945168e-07
-1.95534155226e-09
-5.91914249057e-11
-6.57457238542e-12
-7.28668213044e-13
-1.23580741782e-13
-5.04740670249e-15
-1.23326803121e-16
0.004371603325
0.00626601874693
0.0101403961375
0.0177589587007
0.0311270900699
0.04792520385
0.0507986062918
0.0643690526424
-0.0970655423505
-0.0300436246755
-0.00411828872204
-6.91926627198e-05
-6.33997291526e-07
-4.6794660502e-09
-9.82444098542e-11
-8.45557090789e-12
-9.28125499954e-13
-1.60888721198e-13
-7.0942368722e-15
-2.04897100938e-16
0.00578794211049
0.00785460266661
0.0118196132014
0.0190593588436
0.0308242363555
0.0441541090068
0.0449947476178
0.0559807468044
-0.095071662394
-0.0291362604524
-0.00426867661509
-0.00011637945151
-1.43776693045e-06
-1.08579106022e-08
-1.74932731628e-10
-1.15505067193e-11
-1.20383724276e-12
-2.06931891272e-13
-9.69956648907e-15
-3.28629475401e-16
0.00717295717527
0.00930035041238
0.0131921760936
0.0199122401143
0.0301208076098
0.0403008801162
0.0406950057991
0.0389384997879
-0.091248129653
-0.0275163331032
-0.00444265305285
-0.000181531169217
-2.98249775697e-06
-2.42176964022e-08
-3.24103393736e-10
-1.66078232582e-11
-1.60907137163e-12
-2.65584970375e-13
-1.29649192664e-14
-5.09238238108e-16
0.00837964055265
0.0104871105768
0.0142107419993
0.0203493197032
0.0290337480341
0.0362953673464
0.0392268757056
0.00997574280349
-0.0816991805914
-0.0255046740416
-0.0045455215134
-0.000265888442777
-5.65088965335e-06
-5.18619505823e-08
-6.21020881926e-10
-2.49114109348e-11
-2.23131637369e-12
-3.42546410741e-13
-1.7022015046e-14
-7.63542032285e-16
0.00933551703049
0.0113711667802
0.014855946961
0.0203165595202
0.0273197078046
0.0317509429499
0.0404041754964
-0.016969570595
-0.0708338891095
-0.0231102605127
-0.00451798993126
-0.000367909715075
-9.91516437758e-06
-1.08619325242e-07
-1.28278294682e-09
-3.90825871747e-11
-3.20211378833e-12
-4.44464744746e-13
-2.20278234563e-14
-1.11023150374e-15
0.0100110036019
0.0119208946915
0.0150695041394
0.0196774616238
0.0247645202047
0.0269885316148
0.0437670612417
-0.0391816192182
-0.0607089683341
-0.0204391364077
-0.0043504201425
-0.000471437518717
-1.62828092807e-05
-2.24911782408e-07
-2.61001578966e-09
-6.31607558051e-11
-4.76135810924e-12
-5.78802201201e-13
-2.81509001236e-14
-1.57020527798e-15
0.0103493719971
0.0120586788361
0.0147381970348
0.0182930257162
0.0214209445559
0.0230923062167
0.0464950354492
-0.0563362929863
-0.0516637464452
-0.0177043436049
-0.00406619183954
-0.000557620078071
-2.43346880645e-05
-4.45815018252e-07
-5.33587336443e-09
-1.06252691176e-10
-6.94078247165e-12
-7.52984047009e-13
-3.55745640665e-14
-2.16884385442e-15
0.0102580009597
0.0116860117376
0.0137778339648
0.0162042854792
0.0178978589532
0.0220387457826
0.03850429377
-0.0659204177287
-0.0435662653053
-0.0150395477559
-0.00369756251684
-0.000609491566269
-3.30750281979e-05
-8.41823382571e-07
-1.08009272416e-08
-1.89909347859e-10
-9.78081050332e-12
-9.76512722515e-13
-4.4499768488e-14
-2.94250960864e-15
0.00969279372984
0.0107985192755
0.0122964029465
0.0138570272844
0.0157976967861
0.0287041472414
-0.00828887881313
-0.0618436457757
-0.0352237842878
-0.0123761596842
-0.00325758989445
-0.000619806239215
-4.11040578018e-05
-1.50573493827e-06
-2.15757489835e-08
-3.50422357982e-10
-1.41594102172e-11
-1.25591890793e-12
-5.52218578168e-14
-3.95178352059e-15
0.00871970653392
0.00949911074684
0.0104957654629
0.011784708754
0.0163222020138
0.0340249932714
-0.0422798870343
-0.0525443701174
-0.0274710233315
-0.00986278861131
-0.00278097070192
-0.000593454633597
-4.7588594513e-05
-2.43861849086e-06
-4.14352725744e-08
-6.5110510154e-10
-2.06175070485e-11
-1.58954808076e-12
-6.82077203429e-14
-5.30583495663e-15
0.00777791606759
0.00840675221946
0.00948145321128
0.0124832828223
0.0239490982606
-0.00246450953879
-0.0521255967419
-0.0414801357098
-0.0206615584616
-0.00760438940148
-0.00229963892216
-0.000540063540779
-5.19228799423e-05
-3.52302940726e-06
-7.83791742405e-08
-1.21491570544e-09
-3.04009110471e-11
-1.97531552311e-12
-8.43033715176e-14
-7.2037571367e-15
0.00763138509459
0.00855004782799
0.0109289774283
0.0179200668489
0.015180720456
-0.0389431356981
-0.0464076095157
-0.0305314775409
-0.0148763779881
-0.00564126314012
-0.00183324699849
-0.000469188290117
-5.37703444217e-05
-4.60027364176e-06
-1.42693888867e-07
-2.32795042341e-09
-4.57233188898e-11
-2.40653237631e-12
-1.04843773586e-13
-1.00648551331e-14
0.00931417610597
0.0114638436813
0.016260339674
0.00796788966769
-0.0291978256049
-0.0422386116131
-0.0344810219421
-0.0210104013168
-0.0102574425578
-0.00405741314247
-0.00142394168474
-0.00040453601211
-5.53639613897e-05
-5.77941090844e-06
-2.50163774328e-07
-4.28027019545e-09
-6.9336555437e-11
-2.79804221539e-12
-1.30308901885e-13
-1.47357115831e-14
6.54898151419e-36
4.99333222362e-37
3.99391836211e-35
4.53828032446e-36
2.06641161477e-34
2.54654210769e-35
8.5067280777e-34
9.15833573422e-35
2.86881076867e-33
2.69805761483e-34
8.48204263036e-33
7.16873860908e-34
2.2916330062e-32
1.77548660727e-33
5.7837259425e-32
4.16941146286e-33
1.38332398607e-31
9.48133225829e-33
3.17857185268e-31
2.08191237485e-32
7.08055537029e-31
4.46324728346e-32
1.53726953381e-30
9.29431649768e-32
3.26075320707e-30
1.91904308564e-31
6.7751378804e-30
3.84239270368e-31
1.37898916901e-29
7.60886541207e-31
2.74874527252e-29
1.49197209244e-30
5.36211057695e-29
2.96089803721e-30
1.03201292759e-28
5.52569073373e-30
1.96088941948e-28
1.03193804176e-29
3.67120831647e-28
1.83728684698e-29
6.61891814084e-28
3.61037577776e-29
1.19483027348e-27
6.40677139516e-29
2.05648409349e-27
1.12664797602e-28
3.03679235347e-27
1.67714253641e-28
3.53483283242e-27
-2.22618723603e-28
-3.71586584058e-27
-1.33387078293e-27
-4.09870366179e-26
-9.7940658636e-27
-2.24568196195e-25
-4.82432306172e-26
-9.49552657259e-25
-2.22674518234e-25
-3.6657250212e-24
-9.25122084748e-25
-1.34243103904e-23
-3.69718095215e-24
-4.63839665675e-23
-1.37259083141e-23
-1.53011402995e-22
-4.91811705951e-23
-4.8123828843e-22
-1.67537201821e-22
-1.44709252173e-21
-5.46279524389e-22
-4.1692791465e-21
-1.70106735239e-21
-1.15278962533e-20
-5.07681834015e-21
-3.05906927766e-20
-1.45046877156e-20
-7.79962909696e-20
-3.978772006e-20
-1.91350500235e-19
-1.04832034898e-19
-4.52406158596e-19
-2.65567094799e-19
-1.03137411185e-18
-6.47696032953e-19
-2.26706263228e-18
-1.52056392897e-18
-4.80389953896e-18
-3.43555105924e-18
-9.81391128308e-18
-7.47024785237e-18
-1.93257294288e-17
-1.56259613935e-17
-3.66628883414e-17
-3.14219442596e-17
-6.69438017112e-17
-6.06876603378e-17
-1.17551007862e-16
-1.12477148157e-16
-1.98473982947e-16
-2.00019004057e-16
-3.22456812564e-16
-3.41626618656e-16
-5.0517879885e-16
-5.61870085291e-16
-7.66023225695e-16
-8.9395006907e-16
-1.13111864671e-15
-1.38646174478e-15
-1.64059406656e-15
-2.11852789676e-15
-2.36168182164e-15
-3.22670987639e-15
-3.41937075266e-15
-4.97460139518e-15
-5.04094002449e-15