/*--------------------------------*- C++ -*----------------------------------*\
  =========                 |
  \\      /  F ield         | OpenFOAM: The Open Source CFD Toolbox
   \\    /   O peration     | Website:  https://openfoam.org
    \\  /    A nd           | Version:  dev
     \\/     M anipulation  |
\*---------------------------------------------------------------------------*/
FoamFile
{
    version     2.0;
    format      ascii;
    class       volScalarField;
    location    "0.3";
    object      edc::R_HO2;
}
// * * * * * * * * * * * * * * * * * * * * * * * * * * * * * * * * * * * * * //

dimensions      [1 -3 -1 0 0 0 0];

internalField   nonuniform List<scalar> 
1629
(
5.76091692389e-25
6.78678273262e-25
8.50750783271e-25
1.18906501656e-20
2.89079233619e-20
1.43914599888e-19
6.32556167459e-17
3.74236211327e-16
7.02816506832e-15
1.29852806356e-13
1.32934553613e-12
5.7935129612e-11
2.27431961236e-11
2.40655848651e-10
5.79599801186e-09
2.717168427e-09
2.76896289526e-08
4.82544592352e-07
2.31102606001e-07
2.39327063438e-06
3.30457049677e-05
1.13260643528e-05
0.000107088155942
0.00154281477223
3.12110584046e-05
0.00011497405125
0.000365313636804
4.22233686829e-05
3.38001691876e-05
-0.000393336330487
2.62231140245e-05
-5.45969297574e-05
-0.000457981513617
-9.42822277496e-08
-8.93625271748e-05
-0.00033814232481
-3.49754324832e-06
-7.34183743955e-05
-0.000221323381357
5.01458191911e-05
5.12201128426e-06
-0.000107389880527
0.000201559122979
0.000174751325233
7.26270707154e-05
0.000472880519432
0.000464874585765
0.000368804794313
0.000847219845332
0.000857730533866
0.000820614374351
0.00125715247641
0.00127336182819
0.00129425686345
0.00160313269386
0.00161128000501
0.00162188949293
0.00179413086856
0.00177340021823
0.0017104040706
0.00178872103033
0.00172140711843
0.00155631929625
0.00162198465145
0.00152036127416
0.0012921499036
0.00137404316124
0.0012659406054
0.00104208999868
0.00110826959386
0.00101301215901
0.000827350589617
0.000854635278677
0.000777290068555
0.000632835532336
0.000626217452346
0.00056508051806
0.000453029090427
0.000430620824435
0.000383328958796
0.000294078678957
0.000272633092248
0.000235335812703
0.000158802000924
0.000145277155175
0.000113169404772
4.28975645699e-05
3.9808412372e-05
1.03789336801e-05
-5.68472735821e-05
-4.63407621837e-05
-7.27754001884e-05
-0.000132023832832
-0.00010639411446
-0.000127445503876
-0.000172119018016
-0.000132959050842
-0.000146656467457
-0.000173308900713
-0.000125330514558
-0.000131309226823
-0.000140433147959
-9.13294143727e-05
-9.07866820349e-05
-8.60422611411e-05
-4.48912558531e-05
-3.99078060914e-05
-2.66395973484e-05
-1.74983387082e-06
5.21587631536e-06
2.10741312303e-05
2.44602622182e-05
3.07163278051e-05
4.32015143711e-05
2.51087317749e-05
2.87104404016e-05
3.3809724972e-05
2.23052097577e-06
2.58960396305e-06
2.08619003545e-07
-2.92541086813e-05
-3.10410013757e-05
-3.65412254617e-05
-5.06989837033e-05
-5.24347671918e-05
-5.70476072462e-05
-5.41479004699e-05
-5.51236454073e-05
-5.7633126531e-05
-4.49831567349e-05
-4.54067475355e-05
-4.65217900956e-05
-3.20344724077e-05
-3.22515021872e-05
-3.28173714038e-05
-2.0766767774e-05
-2.09361729302e-05
-2.13196911375e-05
-1.28958259217e-05
-1.30174062401e-05
-1.32556456937e-05
-8.26191237754e-06
-8.32709156153e-06
-8.43384620328e-06
-6.12074879224e-06
-6.14564760936e-06
-6.18041582079e-06
-5.69368669084e-06
-5.70927192108e-06
-5.73718692715e-06
-6.31602664276e-06
-6.34098022913e-06
-6.39686821554e-06
-7.2921975617e-06
-7.32485039052e-06
-7.39885001357e-06
-7.88436842775e-06
-7.91146984201e-06
-7.97233673174e-06
-7.60918635046e-06
-7.6220278525e-06
-7.65063930091e-06
-6.49257059065e-06
-6.493097858e-06
-6.49459227902e-06
-4.94755787276e-06
-4.94319479617e-06
-4.93384451114e-06
-3.42444236235e-06
-3.42071514831e-06
-3.41285879834e-06
-2.19675073989e-06
-2.19637114124e-06
-2.19597535994e-06
-1.37303363735e-06
-1.37822527034e-06
-1.39050185111e-06
-9.75888859445e-07
-9.90666267407e-07
-1.02497559797e-06
-1.0338432739e-06
-1.06770740824e-06
-1.14596275409e-06
-1.73231228016e-06
-1.80708971241e-06
-1.97894532325e-06
-3.69810199824e-06
-3.86112932842e-06
-4.23320732743e-06
1.39961329251e-09
6.62668112857e-08
4.25926563614e-06
0.000257631163723
0.0173796651433
0.000698234582427
-0.00191288112036
-0.000962269561067
-0.000688488383589
-0.000139935511559
1.05708383702e-05
-0.000102433902868
3.93393156106e-05
0.000645375730124
0.00126698625604
0.00159990124703
0.00158494774736
0.00127249676774
0.000952064267025
0.000748592724775
0.000605504859655
0.000468160654276
0.000323200761077
0.000179628492011
4.89169143858e-05
-6.76852851562e-05
-0.000160426203333
-0.00021643863777
-0.000229305065276
-0.00020157361991
-0.000143457229279
-7.1275856758e-05
-3.17666021121e-06
4.37249908887e-05
5.7068314602e-05
3.4758020089e-05
-8.33924736633e-06
-4.70501576824e-05
-6.45100023875e-05
-6.14452274699e-05
-4.82156099647e-05
-3.36833198377e-05
-2.1812840661e-05
-1.35006135457e-05
-8.50708288935e-06
-6.18428907154e-06
-5.76062531885e-06
-6.47389945319e-06
-7.50450310329e-06
-8.05808685167e-06
-7.68968643604e-06
-6.4961006073e-06
-4.92092779188e-06
-3.40254464723e-06
-2.1966608672e-06
-1.41020093403e-06
-1.07821783578e-06
-1.2663290261e-06
-2.24064760627e-06
-4.79399370254e-06
2.56816687573e-14
4.11985980238e-14
7.24840136188e-14
1.17998664584e-13
1.110606838e-13
6.26039331057e-14
2.36485301728e-14
6.4751775537e-15
1.36410369181e-15
2.28698958851e-16
3.10687582585e-17
3.46304981026e-18
3.19828787523e-19
2.4689285843e-20
1.60773363878e-21
8.92892561034e-23
4.29351022254e-24
1.82058272495e-25
7.10266948505e-27
4.87754863038e-28
5.04177978749e-13
8.51292589911e-13
1.60297883403e-12
2.8808875837e-12
2.58616021557e-12
1.29756348999e-12
4.26551731857e-13
1.01456299405e-13
1.87509457733e-14
2.78164297757e-15
3.37255597611e-16
3.38650408748e-17
2.8466649106e-18
2.02300805156e-19
1.22839621473e-20
6.4566082885e-22
2.992730881e-23
1.2517298501e-24
4.91727074045e-26
3.53695518115e-27
8.74080465497e-12
1.09820880749e-11
2.15546932711e-11
4.09569793833e-11
3.42439485545e-11
1.53060993175e-11
4.43297763624e-12
9.3678687474e-13
1.55630380366e-13
2.09088061595e-14
2.31475384869e-15
2.14079800297e-16
1.6724112106e-17
1.11499060041e-18
6.41632890693e-20
3.23366759779e-21
1.457503938e-22
6.06145867515e-24
2.41530826325e-25
1.74023047154e-26
6.03056149752e-10
5.29090145704e-10
4.3291573767e-10
5.10477886422e-10
3.56260782431e-10
1.42004159775e-10
3.70254090281e-11
7.20885559712e-12
1.11029749135e-12
1.393984763e-13
1.45384919953e-14
1.27651006797e-15
9.53631366547e-17
6.12245047188e-18
3.41671700688e-19
1.68284374226e-20
7.48372868389e-22
3.11672253183e-23
1.29239117878e-24
1.10024280603e-25
8.37106679119e-08
1.86467732378e-08
1.34253899897e-08
7.59918033358e-09
3.93789081957e-09
1.33965177085e-09
3.11739001646e-10
5.46845943449e-11
7.74920792091e-12
9.04133219686e-13
8.87452270238e-14
7.41705791931e-15
5.32699076706e-16
3.31662238165e-17
1.80903398524e-18
8.77491891246e-20
3.87500557992e-21
1.62224107806e-22
7.0395580242e-24
7.5779854274e-25
1.74261680632e-05
1.50855427595e-05
1.24362667761e-06
1.46403855671e-07
4.68430031324e-08
1.2578351373e-08
2.52730358445e-09
3.95525571677e-10
5.03662692597e-11
5.44739059397e-12
5.03177241499e-13
4.01580815816e-14
2.78710228616e-15
1.69314894021e-16
9.08330727763e-18
4.36376229385e-19
1.92135669919e-20
8.08792578552e-22
3.63449583757e-23
4.32212120652e-24
0.00180643555259
0.00803355458233
0.000171843460142
1.24771538686e-05
7.80995692101e-07
1.18103480419e-07
1.85838422166e-08
2.50759894248e-09
2.89144775686e-10
2.88632320018e-11
2.53211541627e-12
1.95107473287e-13
1.32338340076e-14
7.92761461729e-16
4.22168612015e-17
2.02337523159e-18
8.92163462492e-20
3.77274210761e-21
1.73266500663e-22
2.0918804426e-23
0.109895371063
-0.00169047699364
0.0193624048203
0.00126456563424
1.85638521065e-05
9.48114010273e-07
1.05620185131e-07
1.20653399047e-08
1.28144107286e-09
1.23415042617e-10
1.06007577313e-11
8.1188937199e-13
5.51212947879e-14
3.31860962283e-15
1.78028030854e-16
8.604035317e-18
3.82333565647e-19
1.62515130141e-20
7.56248987242e-22
8.74050027782e-23
0.00823551181363
0.0132229956364
0.00104352737339
-0.000699462626087
-4.59341945195e-06
8.03845175926e-07
1.81217455752e-07
2.78927681705e-08
3.49316614189e-09
3.72986327528e-10
3.43706773518e-11
2.77608748384e-12
1.96206386228e-13
1.22020881571e-14
6.72353087186e-16
3.32111131079e-17
1.49952468522e-18
6.42528379815e-20
3.01832975411e-21
3.21604940298e-22
0.00509026731438
0.0049362466531
0.000648969442406
-0.000507315587876
-2.70777355702e-05
-1.92177641294e-08
1.94478288494e-07
4.52263437848e-08
7.08688038918e-09
8.79097571793e-10
9.07172924858e-11
7.98504353717e-12
6.03567087459e-13
3.96000191832e-14
2.27756791431e-15
1.16335675642e-16
5.37802859452e-18
2.33183681917e-19
1.10508163306e-20
1.06395753916e-21
0.00594079235586
0.00190685974872
0.00359618620912
-0.000452131220816
-5.12699613624e-05
-1.65857088995e-06
1.48200855713e-07
6.43829337888e-08
1.27562599126e-08
1.83680157234e-09
2.12546585563e-10
2.03979908767e-11
1.66145468582e-12
1.15967164409e-13
7.01656549683e-15
3.73047975512e-16
1.77416638446e-17
7.80775526678e-19
3.73459224816e-20
3.21990143619e-21
0.000553962405722
0.0334149115875
-0.00732620436357
0.0087005064734
0.000273039843654
-2.03661753801e-06
2.525047622e-07
1.22588630805e-07
2.54366895699e-08
3.87401911456e-09
4.77559257988e-10
4.88699162905e-11
4.25201489522e-12
3.14433594545e-13
2.00047514139e-14
1.10832134476e-15
5.43124888255e-17
2.43016500577e-18
1.17386281745e-19
9.03993791603e-21
0.00541853232301
0.0246688128867
-0.00819436782623
0.0127279296548
0.000245788174515
-1.8026378211e-05
-4.0192293108e-07
1.71844445762e-07
4.71957493185e-08
7.8377711175e-09
1.02507668198e-09
1.11689267062e-10
1.02336848117e-11
7.9836427773e-13
5.33069928264e-14
3.07618245356e-15
1.55399199993e-16
7.07936131594e-18
3.45645528176e-19
2.38208543646e-20
0.00553494293044
0.00608145288505
-0.00941273278845
0.0233087176569
-0.000313135043854
-6.97447369583e-05
-2.88159424874e-06
5.68774044595e-08
6.22303390395e-08
1.34819084548e-08
1.98622240589e-09
2.33954285406e-10
2.2872694804e-11
1.89036146263e-12
1.32779851038e-13
7.99465652434e-15
4.17042309248e-16
1.93904393909e-17
9.58748257437e-19
5.94564293057e-20
0.00305359365442
0.00356265174742
-0.0148968822894
0.0234698958302
-0.000261235972808
-6.49520207737e-05
-6.48400426527e-06
-3.0481646034e-07
5.37392814996e-08
1.9373988371e-08
3.4091168644e-09
4.4510058461e-10
4.69565654491e-11
4.15348507619e-12
3.08496809592e-13
1.94540917776e-14
1.05140581232e-15
5.00817177717e-17
2.51532538428e-18
1.4151002906e-19
0.00182668811608
-0.00501395373831
-0.00556950977692
-0.0237526347178
0.00352265802945
-0.000683076149203
-3.00347160073e-05
-1.0914311228e-06
1.205437833e-08
2.45994615244e-08
5.33807203542e-09
7.79421876417e-10
8.96144578836e-11
8.49025640093e-12
6.69556981915e-13
4.4390234393e-14
2.49497359115e-15
1.2229542972e-16
6.26221051599e-18
3.22728523546e-19
0.0023927356592
-0.000760406310425
-0.00526894575176
-0.00604696531224
0.0072387328233
-0.000527022151937
-5.23213036649e-05
-2.1278540819e-06
-6.81831940471e-08
2.59286278655e-08
7.68646457579e-09
1.27713708556e-09
1.6035220357e-10
1.62530503107e-11
1.36376102895e-12
9.53156203885e-14
5.59014025305e-15
2.83214684995e-16
1.48414046166e-17
7.0800036518e-19
0.0027714794543
-0.000381516978439
-0.00454529038084
-0.00391618671772
0.0153352018914
-0.000218884568547
-5.08764761432e-05
-3.04138202677e-06
-2.00323347548e-07
2.20529363363e-08
9.98294147415e-09
1.94406164638e-09
2.68455110126e-10
2.92746035999e-11
2.6197951223e-12
1.93424683288e-13
1.1871160013e-14
6.24158865452e-16
3.3590835427e-17
1.49906534775e-18
0.00252602260133
-0.00076335832813
-0.00381109556021
-0.00598744667864
0.0199442936242
0.000276997133126
-2.35710875467e-05
-3.73802475576e-06
-3.75711511585e-07
-5.47518142927e-11
1.11845971707e-08
2.73552310509e-09
4.23008978253e-10
4.9793014864e-11
4.76922945343e-12
3.72615034242e-13
2.39900016568e-14
1.31374537297e-15
7.28357406576e-17
3.07231503629e-18
0.001956210667
-0.000707706895049
-0.0032786204938
-0.0103142077412
0.0197095791858
0.000174813149182
-1.86441744736e-05
-4.69344300846e-06
-6.59487711241e-07
-4.38294711173e-08
9.63747595802e-09
3.6033969357e-09
6.30246487913e-10
8.08826826093e-11
8.27360824733e-12
6.84750440586e-13
4.63347921026e-14
2.65083314375e-15
1.51783140327e-16
6.11083633045e-18
0.00122422426908
-0.00143777928131
-0.00230962550592
-0.00425251801639
-0.0235352527264
0.00570543853593
-0.00104494053004
-5.73023645624e-05
-1.99427550097e-06
-1.35662173766e-07
4.19578460386e-09
4.35771823852e-09
9.043917853e-10
1.270566889e-10
1.37918619343e-11
1.20799952664e-12
8.5961972131e-14
5.14837594074e-15
3.04991854925e-16
1.1824823527e-17
0.00081993870826
-0.00148414310653
-0.00168539940048
-0.00134639435205
-0.00573372524354
0.0106003433932
-0.000441112030847
-7.11346010963e-05
-3.02319766781e-06
-2.6039575814e-07
-7.2317051833e-09
4.75074859075e-09
1.25852242364e-09
1.93078555909e-10
2.22775755017e-11
2.05944060745e-12
1.54003763876e-13
9.66507863219e-15
5.92929898057e-16
2.23141337705e-17
0.000641843989529
-0.00141672334502
-0.00160921385519
-0.00107228981255
-0.00410773003587
0.0137062498506
0.000205022539578
-3.2862871772e-05
-3.35770507666e-06
-3.84121527326e-07
-2.73778372882e-08
4.54508178907e-09
1.65495318957e-09
2.84894988805e-10
3.49069630785e-11
3.40842615383e-12
2.67585983931e-13
1.76037472304e-14
1.1187063996e-15
4.11499636087e-17
0.000465133041866
-0.00130816133844
-0.00146703261591
-0.00125056145164
-0.00608404886085
0.0117817450517
0.000700706263269
-2.45641797752e-06
-3.34850664808e-06
-5.07848066541e-07
-6.00271930431e-08
2.36257032617e-09
1.98404701455e-09
4.03716282636e-10
5.3151741818e-11
5.48706943263e-12
4.52166710376e-13
3.11936251405e-14
2.05353368866e-15
7.42748366141e-17
0.000249685081113
-0.00118234250765
-0.00121579165196
-0.000910567788302
-0.00277946936467
-0.0162031931209
0.00157484067894
-0.000742747334399
-3.04692577136e-05
-1.26285455298e-06
-1.22201513251e-07
-3.14763763821e-09
2.33558333563e-09
5.45825237425e-10
7.88918292641e-11
8.60035479534e-12
7.44366572112e-13
5.38776806689e-14
3.67399746378e-15
1.31345733065e-16
2.72155591016e-05
-0.00106947609186
-0.000934900170932
-0.000689773488664
-0.00109749642194
-0.00373533093363
0.00584084121494
-0.000941214007427
-7.15838467974e-05
-2.33467252473e-06
-2.17118283862e-07
-1.55384300323e-08
2.13926713793e-09
6.97972750133e-10
1.13895466817e-10
1.31333539707e-11
1.19527959025e-12
9.08277045108e-14
6.4147231765e-15
2.27675513093e-16
-0.000156980030204
-0.000924425719727
-0.000659551045681
-0.000612425781734
-0.000560330621399
-0.00241780636352
0.00844454224974
-0.000233952116849
-5.16786746985e-05
-2.7395690636e-06
-2.98951072396e-07
-3.03095011631e-08
5.90156087346e-10
8.32680451357e-10
1.58227528591e-10
1.95599113629e-11
1.87474509777e-12
1.49635501704e-13
1.09415013056e-14
3.86979264045e-16
-0.000284591883737
-0.000748771659989
-0.000477782664758
-0.000612024759612
-0.000477349075468
-0.00321049478355
0.00911858495799
0.00104510087776
-2.92508868445e-06
-2.28191939025e-06
-3.42945390755e-07
-4.83114047873e-08
-2.02450803095e-09
8.92166194968e-10
2.14391278595e-10
2.84016434638e-11
2.8772707958e-12
2.4126976417e-13
1.82529377731e-14
6.45219758178e-16
-0.000361119728499
-0.000584707029312
-0.00040739801252
-0.000620042069467
-0.000515561986276
-0.00422852887073
0.00518000389406
0.00155391448734
2.62070979465e-05
-1.47799591385e-06
-3.62189753316e-07
-6.70801131717e-08
-4.36516016102e-09
7.83165373962e-10
2.77883493934e-10
4.02261039785e-11
4.32823697152e-12
3.81326081953e-13
2.98178950699e-14
1.05582939064e-15
-0.000385597901116
-0.000423995796402
-0.000375015163576
-0.000584834898299
-0.000248011640778
-0.00177869240174
-0.010429407471
0.00175829071964
-0.000732218560521
-2.86074905636e-05
-9.98752860723e-07
-1.12428284273e-07
-9.76544226535e-09
4.12545616354e-10
3.38657387295e-10
5.5629675072e-11
6.38575319344e-12
5.91405215851e-13
4.77438344923e-14
1.69616016977e-15
-0.000360214089783
-0.000271078040546
-0.000352565843224
-0.00053591695676
-0.000119358889337
-0.000761313322824
-0.0026118207781
0.00496933573032
-0.000919010702341
-6.5331374696e-05
-1.87236791148e-06
-1.80901916319e-07
-1.95918207569e-08
-5.26649381646e-11
3.76554279048e-10
7.49259948803e-11
9.22995745354e-12
9.00100813018e-13
7.49449635963e-14
2.6741611396e-15
-0.000294824240216
-0.000137150085901
-0.000333714916742
-0.000478825314592
-8.15860311303e-05
-0.000489627424916
-0.00194554269897
0.00568607485288
-0.000482259168134
-5.99690868314e-05
-2.47869947918e-06
-2.49090778763e-07
-3.20974223006e-08
-5.94389769505e-10
3.58936974007e-10
9.7167633283e-11
1.30544680854e-11
1.34413145768e-12
1.15317020564e-13
4.13505653524e-15
-0.000203114864121
-3.17673299758e-05
-0.000319998485248
-0.000419743869977
-6.9891332062e-05
-0.000453167766617
-0.00238476792709
0.00403182119367
0.000696408695431
-3.02203797158e-05
-2.50268072381e-06
-2.89415003005e-07
-4.5437106397e-08
-3.04251065747e-09
2.51860178202e-10
1.20198090781e-10
1.80838876059e-11
1.97161647792e-12
1.74040418087e-13
6.27134237026e-15
-0.000102201905581
3.10793561673e-05
-0.00031583114975
-0.000363586738629
-5.08597798283e-05
-0.000278780765383
-0.00116646770186
-0.00645772408125
0.00098963632541
-0.000171605793774
-6.67390035734e-06
-4.28332731826e-07
-6.26382756038e-08
-7.33006351223e-09
1.77899318444e-11
1.53492148245e-10
2.45487015901e-11
2.84706179092e-12
2.58085093975e-13
9.3394801705e-15
-1.27503829412e-05
4.00433834272e-05
-0.000318680115019
-0.000313067648785
-3.97547975667e-05
-0.00016128010372
-0.000544703531216
-0.00179331470345
0.00153412195899
-0.000444868877451
-1.96503809731e-05
-7.54700873433e-07
-8.81535975332e-08
-1.12251308361e-08
-4.38915255466e-10
1.84185860861e-10
3.24656748217e-11
4.04715371744e-12
3.76413314535e-13
1.3671541975e-14
4.77583604256e-05
5.94180129916e-06
-0.000313693125983
-0.000263839952064
-3.33416402332e-05
-0.00011412097743
-0.000347927800208
-0.000949146810411
0.00295708330465
-0.000621131425663
-3.96022420703e-05
-1.19125946175e-06
-1.24687104753e-07
-1.6147053423e-08
-1.21112073763e-09
1.91851586131e-10
4.13795278379e-11
5.64106497864e-12
5.3929290238e-13
1.96636989277e-14
6.74984504207e-05
-5.06276098799e-05
-0.000295310382577
-0.000215938062338
-2.79710647079e-05
-9.74628027134e-05
-0.000313064634835
-0.0011182808164
0.00342523104976
-0.000534272214049
-5.17826153623e-05
-1.73048569634e-06
-1.65184846294e-07
-2.31548555406e-08
-2.2561700823e-09
1.53281400294e-10
5.00478202805e-11
7.66944924267e-12
7.57221444946e-13
2.77521918229e-14
4.52092699262e-05
-0.000106845038948
-0.000264133734062
-0.000170697044622
-2.24026808845e-05
-8.96984847232e-05
-0.00030637788898
-0.001289243333
0.00168250538672
-6.73977805696e-05
-5.77441959303e-05
-2.32099984656e-06
-2.06754803113e-07
-3.15021705927e-08
-3.25218333816e-09
4.27054016252e-11
5.63841852319e-11
1.01291819291e-11
1.04011752338e-12
3.83966607241e-14
-4.25170573044e-06
-0.000143340581843
-0.000223659324644
-0.000129396176649
-1.63909715403e-05
-7.48675754363e-05
-0.000213821502705
-0.000651206837423
-0.00305004878271
0.000560778317179
-0.000125038362118
-4.70353566349e-06
-2.89227495554e-07
-4.07542479561e-08
-4.39754751089e-09
-1.70070074247e-10
5.69139835669e-11
1.2956133082e-11
1.39627227892e-12
5.20522532529e-14
-5.41069204657e-05
-0.000151773335077
-0.000178951059895
-9.32804543189e-05
-1.14693343046e-05
-6.15237399307e-05
-0.000139013394173
-0.000343566763545
-0.00100689802019
0.0010610748883
-0.00021874036724
-9.61488621706e-06
-4.29970540943e-07
-5.40831587404e-08
-6.3265371894e-09
-5.19518867825e-10
4.65418958261e-11
1.59673637109e-11
1.82868972088e-12
6.90663731133e-14
-8.24179301459e-05
-0.000136636419844
-0.0001351028373
-6.32296195877e-05
-8.36491021532e-06
-5.23836491614e-05
-9.60152186106e-05
-0.000250798413388
-0.000552248197531
0.00150471582667
-0.000308895026372
-1.72007287246e-05
-6.21196540296e-07
-6.83597399267e-08
-9.48395171574e-09
-9.61520014038e-10
2.53646601548e-11
1.87770022921e-11
2.32933395229e-12
8.95315231911e-14
-8.48939283382e-05
-0.00010921356262
-9.59610046238e-05
-3.98309969795e-05
-7.16013386608e-06
-4.63768156571e-05
-7.40649248735e-05
-0.000232452504603
-0.000585554061928
0.00169562922511
-0.000350825708196
-2.70580773877e-05
-8.40307535895e-07
-8.4546375626e-08
-1.24685273557e-08
-1.55106478738e-09
2.13980523562e-11
2.07156041508e-11
2.87422572732e-12
1.13197444895e-13
-7.1072724815e-05
-7.98431885465e-05
-6.36995289742e-05
-2.31552339015e-05
-7.61692266832e-06
-4.21687499233e-05
-6.23388979892e-05
-0.000225960381371
-0.000595996527987
0.000823878088988
-0.000240091063208
-3.7141316751e-05
-1.17756450179e-06
-1.03083801938e-07
-1.57131682876e-08
-2.29892203579e-09
1.65461944684e-12
2.05688573539e-11
3.41936748505e-12
1.39385599155e-13
-5.23531013392e-05
-5.42091554307e-05
-3.91608738937e-05
-1.26030100077e-05
-9.2684852561e-06
-3.86885137318e-05
-5.32953690486e-05
-0.000199437977003
-0.00035703299404
-0.000686228635466
5.82503556568e-05
-6.3143552815e-05
-1.98338209171e-06
-1.31372842219e-07
-1.97116164844e-08
-3.13636409497e-09
-4.17475682127e-11
1.69849391037e-11
3.8928393678e-12
1.66653037379e-13
-3.53658827579e-05
-3.42140743907e-05
-2.22373107884e-05
-7.06578408486e-06
-1.160058196e-05
-3.55389354339e-05
-4.58488555734e-05
-0.000169877442239
-0.000151182352778
-0.000548303681702
0.000375791077734
-0.000105646043688
-3.75412451599e-06
-1.81169501186e-07
-2.40716764274e-08
-4.04474032386e-09
-1.16059629817e-10
8.18917072213e-12
4.18790540182e-12
1.92271782258e-13
-2.23005896499e-05
-2.01152972157e-05
-1.19982881867e-05
-5.25275136399e-06
-1.41099673178e-05
-3.24776090791e-05
-3.99462788252e-05
-0.000149024712703
-6.14969266117e-05
-0.000304637114693
0.000584854632685
-0.000144829085601
-6.39347954004e-06
-2.52145234254e-07
-2.94442878771e-08
-5.05612030006e-09
-2.26133775225e-10
-7.75574858659e-12
4.16556871419e-12
2.11858168368e-13
-1.34219145491e-05
-1.14118626546e-05
-6.94125724979e-06
-5.91854224329e-06
-1.62917879111e-05
-2.93453369911e-05
-3.48957258162e-05
-0.000135265607044
-3.48208346536e-05
-0.000270586225186
0.000670098364411
-0.000176319821355
-1.07542533701e-05
-3.58774370023e-07
-3.6192089745e-08
-6.15257023723e-09
-3.7440696585e-10
-3.26531432219e-11
3.6634525217e-12
2.19289325491e-13
-8.28916780863e-06
-7.03271117704e-06
-5.4676365418e-06
-7.92008493217e-06
-1.76981263143e-05
-2.60602913934e-05
-3.08447788809e-05
-0.000125821970644
-2.96285081923e-05
-0.000281377216164
0.000544606445011
-0.00015377918626
-1.88970905182e-05
-5.59375229506e-07
-4.49953320708e-08
-7.38854256061e-09
-5.63640821315e-10
-6.78722490099e-11
2.49791317271e-12
2.06509738631e-13
-6.07429834538e-06
-5.70065365987e-06
-6.18119658075e-06
-1.02200180935e-05
-1.80475584547e-05
-2.26403063266e-05
-2.75276628913e-05
-0.000119364707947
-2.55112130851e-05
-0.000235894725746
0.000206615582754
-6.80905999719e-05
-3.20085578946e-05
-9.80165000705e-07
-5.96393306435e-08
-8.89535135961e-09
-7.98866225534e-10
-1.14237914869e-10
5.22598398144e-13
1.62875291358e-13
-5.85853054389e-06
-6.23964132643e-06
-7.86619174316e-06
-1.19578808978e-05
-1.72809702533e-05
-1.91987328701e-05
-2.49048195185e-05
-0.000115310527045
-1.66185599748e-05
-0.000144444718873
-3.00106408311e-05
5.09634879353e-05
-4.94421329729e-05
-1.90108657942e-06
-8.87428610141e-08
-1.08970646479e-08
-1.08993237605e-09
-1.72363606567e-10
-2.39277168953e-12
7.43361245705e-14
-6.75095519263e-06
-7.56266857362e-06
-9.44173851235e-06
-1.2595664839e-05
-1.55636122657e-05
-1.59108692141e-05
-2.30447222574e-05
-0.000113644924666
-4.50308570281e-06
-5.98499739084e-05
-0.000110958637663
0.000157813607428
-6.53094552987e-05
-3.83045146678e-06
-1.4245962544e-07
-1.40373767605e-08
-1.46031699994e-09
-2.43566054598e-10
-6.35312444651e-12
-7.71202452362e-14
-7.83407389406e-06
-8.6632803166e-06
-1.01333910041e-05
-1.20159239459e-05
-1.32243079523e-05
-1.29895368428e-05
-2.21020023302e-05
-0.000114514296701
1.05229338726e-05
-1.58725361495e-05
-0.000112889365045
0.00022722882268
-7.19680411303e-05
-7.00197783864e-06
-2.4061640828e-07
-1.90715729415e-08
-1.96216823516e-09
-3.31160896907e-10
-1.1459230658e-11
-3.13844182607e-13
-8.30596055815e-06
-8.86082933537e-06
-9.67772650813e-06
-1.04914313861e-05
-1.0689886344e-05
-1.0802100192e-05
-2.31945029073e-05
-0.000114290265361
2.67517758239e-05
2.90245654376e-06
-0.000120183977459
0.00025507396761
-6.87459845705e-05
-1.15470127182e-05
-4.13274990912e-07
-2.70751187335e-08
-2.68732781908e-09
-4.41513248746e-10
-1.7847025313e-11
-6.62971564782e-13
-7.80417032761e-06
-8.03372546944e-06
-8.31828639145e-06
-8.49176117192e-06
-8.36347141879e-06
-9.67083570496e-06
-2.67081156152e-05
-0.000111615712269
4.08767164781e-05
9.22454365058e-06
-0.000128141626984
0.000239119433977
-5.60971320981e-05
-1.70281124304e-05
-7.16311303003e-07
-3.98013635028e-08
-3.78487757837e-09
-5.84395121609e-10
-2.57259127624e-11
-1.15701818631e-12
-6.51121217904e-06
-6.53204019766e-06
-6.5374583999e-06
-6.4737776639e-06
-6.56263559406e-06
-9.84837478971e-06
-3.27749986374e-05
-0.000104826269641
5.3637251317e-05
9.78915556202e-06
-0.000125665583242
0.000198633489759
-3.39094005123e-05
-2.2679870647e-05
-1.30352217911e-06
-6.07717851213e-08
-5.47401427521e-09
-7.71541525897e-10
-3.53885344234e-11
-1.8348460912e-12
-4.89680077735e-06
-4.84646152951e-06
-4.7847990283e-06
-4.78359354675e-06
-5.55617946554e-06
-1.15550526674e-05
-4.17032756426e-05
-9.18715655541e-05
6.47676263893e-05
7.55807367718e-06
-0.000114390231941
0.000158566980811
-4.21795024126e-06
-2.77391530366e-05
-2.23604749653e-06
-9.4557377106e-08
-8.15153150935e-09
-1.01690913492e-09
-4.72125738446e-11
-2.74411510031e-12
-3.38105954394e-06
-3.3492444552e-06
-3.36148836953e-06
-3.66402600293e-06
-5.5835781315e-06
-1.49856108182e-05
-5.40882820376e-05
-6.93847801275e-05
7.23303827088e-05
3.71460041052e-06
-0.000100066954166
0.000121672420016
2.66425162313e-05
-3.13066734486e-05
-3.67993957865e-06
-1.51307556434e-07
-1.18286253428e-08
-1.33590134887e-09
-6.16642767854e-11
-3.94751589058e-12
-2.20047599976e-06
-2.24292331849e-06
-2.44242075611e-06
-3.29666907074e-06
-6.84957516086e-06
-2.03261405193e-05
-6.9437221162e-05
-3.6493140464e-05
7.46050889767e-05
-1.12827765366e-06
-8.59927092632e-05
8.7672239358e-05
5.26451986292e-05
-3.33225629559e-05
-5.66588154654e-06
-2.54091866013e-07
-1.65485271539e-08
-1.74895937889e-09
-7.9394898866e-11
-5.53612818931e-12
-1.462108072e-06
-1.64883820275e-06
-2.209392016e-06
-4.0379627919e-06
-1.01346943618e-05
-2.99797228541e-05
-7.51978705038e-05
1.14268275115e-06
7.03629992821e-05
-6.505411487e-06
-7.38048621513e-05
6.04407298896e-05
7.04881378481e-05
-3.34365151657e-05
-8.08996524614e-06
-4.31813362401e-07
-2.37272778519e-08
-2.27266405327e-09
-1.01287722577e-10
-7.65517432916e-12
-1.21666953631e-06
-1.66707415627e-06
-2.86927404126e-06
-6.27231595025e-06
-1.60762511738e-05
-4.55307788918e-05
-6.2761808172e-05
3.52933729023e-05
5.97360722923e-05
-1.17994066961e-05
-6.41407446997e-05
4.09031114635e-05
8.03049537736e-05
-3.10353277277e-05
-1.05740987869e-05
-7.22703818719e-07
-3.41331233985e-08
-2.91076248506e-09
-1.28620755839e-10
-1.05519373983e-11
-1.57509601082e-06
-2.53455192762e-06
-4.89564560744e-06
-1.08956080332e-05
-2.68412473143e-05
-5.8662884241e-05
-2.89133441723e-05
5.75888789948e-05
4.42909397228e-05
-1.64469533627e-05
-5.68596937117e-05
2.76945526042e-05
8.30570719117e-05
-2.67106075279e-05
-1.29728251402e-05
-1.17777341467e-06
-4.95358891477e-08
-3.66521638072e-09
-1.63371739517e-10
-1.46512244205e-11
-2.8973423896e-06
-4.84439752933e-06
-9.30239722568e-06
-1.99292981345e-05
-4.42846231517e-05
-4.79835841858e-05
1.41136696996e-05
6.28486040598e-05
2.63597072903e-05
-2.03524743553e-05
-5.16580023719e-05
1.83346319164e-05
8.03010762588e-05
-2.11904192745e-05
-1.49807700113e-05
-1.89040408718e-06
-7.29591403775e-08
-4.52695683731e-09
-2.08354414366e-10
-2.07894900055e-11
-6.17506719525e-06
-1.01361242414e-05
-1.88486889328e-05
-3.56221167265e-05
-4.33509260581e-05
-1.22565831361e-05
4.35774368956e-05
5.16750182065e-05
8.98048244454e-06
-2.39726013316e-05
-4.78309565485e-05
7.75001930036e-06
7.6013817035e-05
-1.44751469033e-05
-1.6535249961e-05
-2.75664232161e-06
-1.07727205429e-07
-5.3402588302e-09
-2.64412760497e-10
-3.05447602129e-11
4.7583995161e-26
3.60140353619e-27
2.90428510905e-25
3.31351193248e-26
1.50176771552e-24
1.85683345234e-25
6.18246928041e-24
6.6969143689e-25
2.08486843781e-23
1.96806373074e-24
6.16512805946e-23
5.22137842324e-24
1.66608941482e-22
1.29495514177e-23
4.20384627711e-22
3.04974272599e-23
1.00568007236e-21
6.90073097846e-23
2.31078812289e-21
1.515967211e-22
5.1472198749e-21
3.25827653352e-22
1.11749583328e-20
6.81261463243e-22
2.37128735997e-20
1.39308515137e-21
4.92559519936e-20
2.8105227053e-21
1.00266228152e-19
5.58366762758e-21
2.00197411558e-19
1.09294382249e-20
3.9238102435e-19
2.10918543222e-20
7.55536457051e-19
4.0161696512e-20
1.43046323913e-18
7.55253619623e-20
2.66470159088e-18
1.40480378367e-19
4.88534487196e-18
2.58186645494e-19
8.81382015105e-18
4.68140188849e-19
1.56413178286e-17
8.37087683319e-19
2.72909284399e-17
1.47540659468e-18
4.67994092965e-17
2.56259634194e-18
7.88403509145e-17
4.38909293122e-18
1.3042283903e-16
7.39448076578e-18
2.11674966133e-16
1.22363861034e-17
3.36710540157e-16
1.98610329705e-17
5.24808997382e-16
3.1600827248e-17
8.02270779378e-16
4.93233994914e-17
1.20418174572e-15
7.55930110602e-17
1.77448412713e-15
1.13738322784e-16
2.56477518909e-15
1.67814842601e-16
3.63325008893e-15
2.42478472964e-16
5.04189699013e-15
3.42474087033e-16
6.84558801271e-15
4.70862436571e-16
9.07466242856e-15
6.25057031293e-16
1.17191287926e-14
7.89065826232e-16
1.47044483891e-14
9.16567842239e-16
1.78226864696e-14
8.92457131658e-16
2.06082508022e-14
4.53883619748e-16
2.21736656445e-14
-9.58928377519e-16
2.09901755006e-14
-4.47313620775e-15
1.45210877703e-14
-1.22570724582e-14
-1.38762456135e-15
-2.82998847713e-14
-3.33493082201e-14