/*--------------------------------*- C++ -*----------------------------------*\
  =========                 |
  \\      /  F ield         | OpenFOAM: The Open Source CFD Toolbox
   \\    /   O peration     | Website:  https://openfoam.org
    \\  /    A nd           | Version:  dev
     \\/     M anipulation  |
\*---------------------------------------------------------------------------*/
FoamFile
{
    version     2.0;
    format      ascii;
    class       volScalarField;
    location    "0.3";
    object      edc::YStar_C2H5;
}
// * * * * * * * * * * * * * * * * * * * * * * * * * * * * * * * * * * * * * //

dimensions      [0 0 0 0 0 0 0];

internalField   nonuniform List<scalar> 
1629
(
5.59815696469e-23
4.80447544276e-23
3.29193916138e-23
8.33050297918e-21
9.59059977977e-21
1.33290276128e-20
7.03271348119e-19
1.15115890203e-18
3.1752481165e-18
4.65805870492e-17
1.06782903205e-16
5.03659276217e-16
2.8368800654e-15
7.81532025431e-15
3.52601990692e-14
1.55123261585e-13
4.96041671424e-13
2.1655333686e-12
6.70258370355e-12
2.33376083603e-11
1.00126439606e-10
1.75000350824e-10
6.31761700714e-10
2.84633433609e-09
8.56390494723e-10
2.42823101718e-09
8.36997312999e-09
2.1872159201e-09
4.77565754376e-09
1.21898305371e-08
3.92043798405e-09
6.81975546047e-09
1.33416388522e-08
5.86187861478e-09
8.71769484833e-09
1.46204370263e-08
8.35602714726e-09
1.15839975736e-08
1.91155606247e-08
1.16201715376e-08
1.54380798535e-08
2.47303940308e-08
1.57561259748e-08
2.03869800202e-08
3.20962038272e-08
1.93171494409e-08
2.38509407077e-08
3.47398804045e-08
2.07522159236e-08
2.43171103118e-08
3.24914624293e-08
1.96860361535e-08
2.20601378305e-08
2.75213673508e-08
1.69880039022e-08
1.85002126842e-08
2.21958479711e-08
1.40072674992e-08
1.51775923905e-08
1.82704472532e-08
1.16900729473e-08
1.28722662028e-08
1.61584357091e-08
1.031518578e-08
1.16665230302e-08
1.5471543845e-08
9.7446570096e-09
1.13024198659e-08
1.58383697399e-08
9.96696648806e-09
1.18661841408e-08
1.77388905001e-08
1.14233635306e-08
1.39959389888e-08
2.2344905705e-08
1.51036380101e-08
1.89015220862e-08
3.10160638295e-08
2.22771138505e-08
2.80309693462e-08
4.47427334068e-08
3.44103746534e-08
4.22872021445e-08
6.2781534341e-08
5.11022599889e-08
6.03521033607e-08
8.26528911588e-08
6.97297879334e-08
7.90979208284e-08
1.00032199752e-07
8.60595449086e-08
9.43781193885e-08
1.12209344681e-07
9.76553357805e-08
1.04591125128e-07
1.1937710871e-07
1.04819484221e-07
1.10751734541e-07
1.23621047563e-07
1.09981500721e-07
1.15537676357e-07
1.27808702325e-07
1.15907019506e-07
1.21493326456e-07
1.34109029915e-07
1.24728519047e-07
1.30659568586e-07
1.44032976922e-07
1.37818173429e-07
1.44097057336e-07
1.58087732824e-07
1.55145620152e-07
1.61532989115e-07
1.75436912886e-07
1.74739501501e-07
1.8067009048e-07
1.93256913499e-07
1.92601529434e-07
1.97512594971e-07
2.0770171341e-07
2.05205334524e-07
2.0893552528e-07
2.16434615516e-07
2.12491184248e-07
2.15226221087e-07
2.2074383823e-07
2.17919058246e-07
2.20130950715e-07
2.24700071896e-07
2.26262714112e-07
2.28366934491e-07
2.32857091547e-07
2.41804191818e-07
2.44099017378e-07
2.49131899974e-07
2.68022609359e-07
2.70728263428e-07
2.7675928261e-07
3.07629770179e-07
3.10904202178e-07
3.18254316157e-07
3.62020580711e-07
3.65932166937e-07
3.74718538317e-07
4.2985141713e-07
4.34296711028e-07
4.44236622175e-07
5.05001420821e-07
5.09647326013e-07
5.19967608274e-07
5.75955302745e-07
5.80310136127e-07
5.89912831178e-07
6.29007068829e-07
6.32627878643e-07
6.40561620568e-07
6.54644240511e-07
6.57355466243e-07
6.63271694427e-07
6.52672744164e-07
6.54611817412e-07
6.58842610516e-07
6.31784753302e-07
6.33241195752e-07
6.36422656458e-07
6.03223826398e-07
6.04401704548e-07
6.06979501556e-07
5.73554457686e-07
5.7448932175e-07
5.76515021353e-07
5.41909016727e-07
5.42485736299e-07
5.43716083284e-07
5.01734703077e-07
5.01798944817e-07
5.01883963929e-07
4.43704134973e-07
4.43124645393e-07
4.41784551947e-07
3.60585591979e-07
3.5934780917e-07
3.56558424858e-07
2.51478977432e-07
2.49725337852e-07
2.45811334235e-07
1.29779572385e-07
1.27924099147e-07
1.23831329568e-07
1.67801334693e-15
1.00101729265e-13
5.66200609414e-12
2.92268766562e-10
1.11031231745e-08
2.60583332905e-08
2.70939706388e-08
2.20418979889e-08
2.27843263703e-08
3.34974421396e-08
4.24263902224e-08
5.54892695614e-08
5.43973593278e-08
4.66229046191e-08
3.72500471964e-08
2.93974623483e-08
2.50941592475e-08
2.37172604618e-08
2.4691170239e-08
2.75712849596e-08
3.35429536825e-08
4.39010769343e-08
5.91527700062e-08
7.81887261805e-08
9.85605108474e-08
1.16506131505e-07
1.29130290036e-07
1.36155533364e-07
1.39444533002e-07
1.4180876542e-07
1.45822203994e-07
1.52906865268e-07
1.63777746688e-07
1.78236779667e-07
1.94645368771e-07
2.09900925259e-07
2.20574449496e-07
2.25683934648e-07
2.27640863372e-07
2.30687576747e-07
2.3905556988e-07
2.56332792529e-07
2.85552489748e-07
3.29042412387e-07
3.87572391957e-07
4.5865756125e-07
5.34769578243e-07
6.03524791085e-07
6.51695049595e-07
6.71526317238e-07
6.64758069866e-07
6.40891928376e-07
6.10600568157e-07
5.79329840519e-07
5.4536068506e-07
5.01874895607e-07
4.39741129657e-07
3.52467003992e-07
2.40165119307e-07
1.18034856123e-07
1.10626023583e-22
2.08077369466e-21
6.22041536034e-21
9.9242673169e-21
8.27085059045e-21
4.28457975935e-21
1.54759862135e-21
4.16244200584e-22
8.76505711013e-23
1.48580287e-23
2.05664736018e-24
2.3482527893e-25
2.22995394474e-26
1.77498614218e-27
1.19446126556e-28
6.86877867192e-30
3.42687047032e-31
1.51050040125e-32
5.94161697938e-34
7.97063360731e-36
2.68689331283e-21
3.64104274988e-20
1.34205146384e-19
2.41079035801e-19
1.8699289808e-19
8.56170962204e-20
2.70219933027e-20
6.36641781044e-21
1.18751343995e-21
1.7983466229e-22
2.24203876967e-23
2.32608821888e-24
2.02674158992e-25
1.49626074458e-26
9.45362570795e-28
5.17743385397e-29
2.50421771264e-30
1.09402723783e-31
4.25807682049e-33
6.00362346779e-35
1.47297392534e-19
3.39129910272e-19
1.59482480737e-18
4.64946901191e-18
2.99401528069e-18
9.41426016538e-19
2.73456004348e-19
5.78604331775e-20
9.80430577643e-21
1.35756889109e-21
1.55894357139e-22
1.50166943912e-23
1.22505340418e-24
8.54315741036e-26
5.14798834372e-27
2.7190064887e-28
1.28546703967e-29
5.60554220202e-31
2.18770939631e-32
3.09326729659e-34
1.30321787394e-16
2.95044350994e-18
3.72860293718e-17
1.35842180752e-18
3.8093209849e-19
8.46602077189e-19
3.21830877437e-18
4.39360389145e-19
7.01633579442e-20
9.14816910933e-21
9.961800161e-22
9.16285565278e-23
7.18523572507e-24
4.84757021277e-25
2.84442379481e-26
1.47348487973e-27
6.89306331294e-29
3.01371486851e-30
1.20434469939e-31
2.06297957553e-33
2.37846195053e-14
7.46078302026e-16
3.4788628504e-16
1.67512498432e-17
3.3410828849e-18
1.31391478115e-17
1.92948620158e-19
6.68500282687e-18
4.9111964593e-19
6.0514464617e-20
6.24850139651e-21
5.50403258357e-22
4.16932436134e-23
2.73801034096e-24
1.57470542043e-25
8.04995919144e-27
3.74384875201e-28
1.64414029381e-29
6.73023032258e-31
1.46738636512e-32
4.06087805365e-12
2.21547691893e-13
9.60668115366e-15
1.49221893082e-15
2.76561018472e-16
2.63562867522e-17
7.48214147595e-18
8.42479396082e-19
6.3087403902e-18
3.7741593516e-19
3.69881047928e-20
3.13039598897e-21
2.30095046676e-22
1.47815830081e-23
8.37302546134e-25
4.2411697744e-26
1.96561986935e-27
8.6577201726e-29
3.57433789971e-30
8.61706103214e-32
6.21930072081e-10
3.30008768193e-10
9.66433029091e-12
3.27311078998e-13
1.99916768337e-14
1.44213901568e-15
6.50969215021e-17
1.00859758089e-17
1.5874388202e-19
2.33376739095e-18
1.99828718285e-19
1.6396601892e-20
1.17959404176e-21
7.47069515193e-23
4.19521612392e-24
2.11571510262e-25
9.79260328364e-27
4.31306986561e-28
1.76467792668e-29
4.33084252724e-31
8.35543168686e-08
1.40453486496e-18
5.81832770646e-10
3.32243190903e-11
6.21243529964e-13
3.93248941435e-14
1.65206460328e-15
3.8612161412e-17
4.86278164412e-17
1.00333662947e-18
9.32676510963e-19
7.67091307004e-20
5.48772246311e-21
3.47023780972e-22
1.95091937851e-23
9.8630612601e-25
4.57389421596e-26
2.01031759576e-27
8.05280813483e-29
1.90767725045e-30
1.22572581176e-07
1.31050113591e-06
7.67314939687e-09
2.03699381192e-10
4.36757145644e-12
1.88432916279e-13
1.18526315841e-14
3.79448500445e-16
9.69742897478e-18
1.17975234834e-18
5.17252041e-18
3.12128731793e-19
2.27354862388e-20
1.46088660306e-21
8.3275770517e-23
4.25728275562e-24
1.98723418844e-25
8.71520298295e-27
3.39597318793e-28
7.52392571071e-30
6.35634522931e-08
3.1939374261e-07
5.40594931906e-09
1.43518789902e-10
7.45807266092e-12
4.25587707e-13
4.13565913212e-14
2.08482572047e-15
1.16541643259e-16
7.13600981917e-17
2.01086447988e-17
1.09252720461e-18
8.36217523964e-20
5.55444651924e-21
3.2504496676e-22
1.69473793833e-23
8.00274292058e-25
3.50690065648e-26
1.32630406998e-27
2.70759525748e-29
3.04401074151e-08
5.55220385367e-08
1.11439819153e-08
2.87989325685e-10
2.3379954074e-11
1.26067500204e-12
1.42939033999e-13
9.93069668484e-15
3.54121549777e-16
3.37441530772e-17
1.61743317239e-19
3.34678068873e-18
2.77891374993e-19
1.92470886893e-20
1.16475520454e-21
6.22908250656e-23
2.98741709271e-24
1.31062060516e-25
4.81268685611e-27
9.01042755802e-29
4.3597257437e-08
4.10631670987e-07
0
1.31724005824e-09
1.81517665383e-10
6.943058959e-12
5.56214745108e-13
4.7408181832e-14
1.96422235063e-15
5.08275150567e-17
1.03438282875e-17
1.9321340499e-17
8.50289578141e-19
6.13672992043e-20
3.84933964986e-21
2.11833247333e-22
1.03496588768e-23
4.55656606043e-25
1.62800500131e-26
2.7984638772e-28
8.63457978007e-08
8.15818063063e-07
3.49468086152e-16
1.18602395897e-09
1.7117988483e-10
1.59304254198e-11
9.88186249138e-13
1.33690058631e-13
7.99651760908e-15
2.84345664732e-16
1.7085846667e-16
7.71823746091e-18
2.31949910522e-18
1.78621594227e-19
1.1693094888e-20
6.65649720622e-22
3.32750355819e-23
1.47560014197e-24
5.14908992278e-26
8.16830078173e-28
9.75122441622e-08
1.15391248507e-06
1.14253082094e-06
8.754686926e-10
8.21346583054e-11
1.72464978889e-11
1.16259847087e-12
2.33173388122e-13
2.15476184003e-14
9.20873567888e-16
6.43603546741e-17
5.25786355874e-19
5.64728465935e-18
4.74622563304e-19
3.26507225176e-20
1.9336078349e-21
9.93833316844e-23
4.45960716587e-24
1.52738199475e-25
2.25399755241e-27
1.32326927405e-07
2.03296849185e-06
8.69870927453e-06
4.28337769281e-09
5.20487581726e-11
1.0332067305e-11
1.18019858113e-12
2.81128914749e-13
4.46937794036e-14
2.75312108132e-15
8.62145783427e-17
1.13443973776e-17
2.53554103517e-17
1.16310906051e-18
8.43026920382e-20
5.21235234432e-21
2.76589414709e-22
1.26166645989e-23
4.26421084888e-25
5.91095561949e-27
1.07691607823e-07
1.41597943282e-06
4.33420681054e-06
2.40126905931e-21
3.52680291956e-10
8.22817727015e-11
4.09134277165e-12
4.36538838673e-13
8.50730407814e-14
6.96080207618e-15
3.98591912941e-16
1.32627658233e-16
4.13272261448e-17
2.60677659135e-18
2.0190768021e-19
1.30810601245e-20
7.19563787582e-22
3.35229516114e-23
1.12444537776e-24
1.47966562749e-26
8.65586429024e-08
1.07653542091e-06
1.31311753696e-06
0
5.75960156422e-10
8.64497821312e-11
7.84627173506e-12
5.85184051322e-13
1.41511913297e-13
1.51726870943e-14
7.67820037207e-16
4.77253999712e-17
8.38679617535e-19
5.33736153592e-18
4.49414172061e-19
3.06480730601e-20
1.75542387548e-21
8.39326865135e-23
2.81006905678e-24
3.54877772969e-26
7.01960613332e-08
7.40914904045e-07
6.66775532041e-07
4.89081222218e-08
1.97307970056e-10
3.52620756009e-11
7.58975390369e-12
5.92092859489e-13
1.81656996755e-13
2.90636208141e-14
1.84802362768e-15
9.56040353928e-17
2.06314739229e-18
1.27570783668e-17
9.3684940342e-19
6.74167012693e-20
4.03436761753e-21
1.98817793791e-22
6.67938316702e-24
8.18231764189e-26
6.07856575279e-08
5.49489203678e-07
5.26216028328e-07
1.16529138366e-06
6.98723711936e-10
9.97763964189e-12
3.27100121165e-12
4.84269180942e-13
1.96043039441e-13
4.47460279051e-14
3.93522495475e-15
1.7680904971e-16
1.56975141204e-17
3.79084339346e-17
1.84036179933e-18
1.40069346527e-19
8.77887632148e-21
4.47488061899e-22
1.51563325174e-23
1.81935437228e-25
6.26547952598e-08
5.13779900201e-07
6.02961007502e-07
3.82615113197e-06
7.20668109466e-09
1.1501289805e-11
2.19536182878e-12
3.80035509109e-13
1.46736673569e-13
6.05460270036e-14
7.51540825556e-15
4.24057730906e-16
9.52771995764e-17
5.51051552857e-17
3.37256792175e-18
2.75991496097e-19
1.81630076777e-20
9.60717515733e-22
3.2942784577e-23
3.91171019358e-25
7.4297275139e-08
5.43132854092e-07
7.57588960313e-07
9.31017027193e-06
0
1.60409959333e-10
4.33019578601e-11
3.21685232733e-12
2.52511381607e-13
9.23678597673e-14
1.39197328271e-14
1.10840140521e-15
1.93394432977e-16
5.37552040395e-18
5.86086577738e-18
5.18626896862e-19
3.58980557005e-20
1.97534645359e-21
6.88143160121e-23
8.15212479113e-25
9.39615123856e-08
5.40130772727e-07
7.93557630347e-07
5.998251386e-06
0
2.39444635691e-10
2.68067074238e-11
5.13829856991e-12
2.83845651046e-13
1.15013265516e-13
2.39928509534e-14
1.98661853702e-15
1.20380572607e-16
2.37137089637e-18
9.77966836686e-18
9.37726555103e-19
6.82077817707e-20
3.90835326353e-21
1.3865566291e-22
1.65085738816e-24
1.15720580802e-07
4.74940508973e-07
6.68028082107e-07
2.45393598687e-06
4.07995602287e-08
2.81092349376e-10
5.85818225674e-12
2.16634691113e-12
2.28899550338e-13
1.1480202233e-13
3.48336392602e-14
3.85259586493e-15
2.06079817093e-16
7.65683269782e-18
2.50025118103e-17
1.64172142788e-18
1.25255658269e-19
7.47375270948e-21
2.70420667375e-22
3.2559971956e-24
1.35128251318e-07
4.00520160253e-07
5.35737030312e-07
1.20780830701e-06
5.12208286809e-07
2.8682491689e-09
2.22087951193e-12
6.74219865809e-13
1.43608784305e-13
9.47615232156e-14
4.19873638993e-14
6.7180807465e-15
4.27233113629e-16
3.03219415066e-17
5.2205231415e-17
2.74979384573e-18
2.22637440619e-19
1.38426323723e-20
5.11579393785e-22
6.26267329911e-24
1.50209946187e-07
3.43598273545e-07
4.54309577777e-07
7.70105725687e-07
1.56372422452e-06
1.00501173553e-17
8.12474650553e-11
1.51820134913e-11
8.89466726972e-13
9.54689799014e-14
5.10080875698e-14
1.09999717033e-14
8.73775595307e-16
1.12204117461e-16
5.84001894064e-17
4.41149817869e-18
3.82207288085e-19
2.48226536173e-20
9.38992769418e-22
1.17443771617e-23
1.6164530996e-07
3.11580047247e-07
4.30151818227e-07
6.20118753416e-07
4.17018607508e-06
2.65499654341e-21
1.31422221029e-10
2.24667946422e-11
2.44291148793e-12
1.21595492733e-13
5.94516640632e-14
1.59167501689e-14
1.70720021851e-15
2.12114729277e-16
7.19204058241e-18
6.76549470052e-18
6.3229062569e-19
4.30369640635e-20
1.67070174285e-21
2.14443147877e-23
1.71356736724e-07
2.99466428595e-07
4.38700748147e-07
5.6357894567e-07
5.30676900218e-06
2.64608617475e-19
2.55460241052e-10
1.10552792542e-11
1.97941177803e-12
1.11532419741e-13
6.17024089227e-14
2.14483265278e-14
2.75191297054e-15
1.84328971182e-16
5.68004509743e-18
9.98627983483e-18
1.01041791317e-18
7.21866086283e-20
2.88091979876e-21
3.80845639514e-23
1.78600335825e-07
2.95193185221e-07
4.43723904981e-07
5.17114414628e-07
4.81500484758e-06
2.52233913521e-11
1.70151489219e-09
1.92432081848e-12
6.88332332156e-13
7.48413634576e-14
5.27580546342e-14
2.45866741243e-14
4.16072477947e-15
3.20961347385e-16
1.23264301008e-17
1.86955695033e-17
1.56755579338e-18
1.17444282762e-19
4.82027786939e-21
6.57910233121e-23
1.82137170247e-07
2.91396096313e-07
4.31880379796e-07
4.68134420096e-07
3.93205692162e-06
9.6414098645e-08
6.27223315612e-08
1.12793365939e-12
1.70208877454e-13
5.75780616034e-14
3.85501351216e-14
2.49800431879e-14
6.26259639681e-15
5.56197695395e-16
2.86225030174e-17
3.72383964112e-17
2.35064423935e-18
1.86000431717e-19
7.84290437488e-21
1.1067159704e-22
1.82343561784e-07
2.87534223277e-07
4.09534150865e-07
4.24589375727e-07
3.03104074236e-06
5.12074726892e-07
3.34986930521e-18
5.18104007806e-11
7.37984990989e-12
4.17140086691e-13
3.72002545273e-14
2.60162132262e-14
8.82921019799e-15
9.40056019636e-16
6.95518152093e-17
5.65128460272e-17
3.43719112663e-18
2.8735588079e-19
1.24307347849e-20
1.81464827457e-22
1.80735115566e-07
2.83958115567e-07
3.84125931322e-07
3.90570147345e-07
2.31053321113e-06
1.37198214332e-06
0
1.02407532312e-10
1.25453102264e-11
1.26638950314e-12
4.57501053869e-14
2.82589738082e-14
1.13924529357e-14
1.57585069503e-15
1.61639053051e-16
4.30862805672e-17
4.8885216992e-18
4.32612313955e-19
1.91884482178e-20
2.89921457741e-22
1.79709212774e-07
2.82275327102e-07
3.6160531919e-07
3.69715622275e-07
1.85461753134e-06
2.34585285054e-06
4.45297924881e-19
4.45852340161e-10
9.79404928028e-12
1.13666284397e-12
4.57179284319e-14
2.68361835049e-14
1.35224922215e-14
2.59913067063e-15
2.80242670607e-16
1.09461801075e-17
6.76601696167e-18
6.34143502032e-19
2.88214196069e-20
4.50828331137e-22
1.81475509027e-07
2.83571146262e-07
3.44037236442e-07
3.60591603964e-07
1.590164893e-06
2.88271469367e-06
1.13191716051e-19
8.51363767614e-09
4.3459054296e-12
6.66016658234e-13
5.12315242439e-14
2.4813081808e-14
1.43189261462e-14
3.70174836872e-15
3.16312130571e-16
1.40738661324e-17
9.17080877513e-18
9.0683354789e-19
4.21383729638e-20
6.82088182081e-22
1.87094738393e-07
2.86460124378e-07
3.29338045583e-07
3.57804325327e-07
1.42036325915e-06
3.1187237897e-06
1.84938626233e-15
2.00602394438e-12
2.72090040591e-11
2.64092939386e-12
9.8510164941e-14
2.00124353321e-14
1.39011890762e-14
4.30009202827e-15
5.06539128838e-16
2.65441570425e-17
1.44073341893e-17
1.26939126877e-18
6.00692261433e-20
1.00499842581e-21
1.96071695003e-07
2.87537748762e-07
3.1439899363e-07
3.55621741288e-07
1.27121872598e-06
3.16800035033e-06
2.32381643267e-08
0
7.35303644156e-11
5.90776723406e-12
2.55091347879e-13
2.57963711722e-14
1.52389831216e-14
5.48131422937e-15
7.50082282695e-16
4.94924078043e-17
2.6592901991e-17
1.73765891358e-18
8.36563645954e-20
1.44422474903e-21
2.0751024332e-07
2.85858403124e-07
3.00708901701e-07
3.5630006379e-07
1.16375746512e-06
3.0272311037e-06
2.45636097463e-07
0
1.4813099015e-10
1.10399379985e-11
6.34377302874e-13
3.12490611284e-14
1.50358749547e-14
6.90479877167e-15
1.07655267682e-15
8.96921300741e-17
4.09654398753e-17
2.32873532046e-18
1.13885843689e-19
2.02570112717e-21
2.19948030038e-07
2.81422719477e-07
2.89817347492e-07
3.61895598642e-07
1.09876772258e-06
2.81597654004e-06
5.37387872625e-07
3.34799768125e-18
5.83502400379e-10
1.48452061444e-11
8.19879081692e-13
2.964501106e-14
1.49887149208e-14
7.79317929124e-15
1.47807622598e-15
1.57163316762e-16
4.8425879665e-17
3.06079234942e-18
1.51493698517e-19
2.77326996064e-21
2.31040074095e-07
2.74840561833e-07
2.82565348881e-07
3.73798151851e-07
1.06948395623e-06
2.6200379141e-06
7.93481657838e-07
9.5922312062e-23
8.15638284546e-09
1.6412556938e-11
9.77484887677e-13
3.82577863027e-14
1.42717609128e-14
7.85052593651e-15
2.04062727932e-15
2.58222201868e-16
2.94890099081e-17
3.94553628419e-18
1.96785878871e-19
3.70442460336e-21
2.38217471842e-07
2.67244540281e-07
2.79641461979e-07
3.9301245122e-07
1.06583621341e-06
2.44936263008e-06
9.89184120489e-07
8.77023487216e-22
8.69460618024e-11
4.43988387675e-11
2.62463974163e-12
6.6497035534e-14
1.50808539072e-14
8.34164198292e-15
2.78509131016e-15
3.79386968596e-16
2.09349850254e-17
5.030505216e-18
2.50426854338e-19
4.83591673671e-21
2.40452854475e-07
2.60428004002e-07
2.81974002311e-07
4.20284441633e-07
1.07727377334e-06
2.29016383337e-06
1.14093114339e-06
8.4028859144e-21
6.45266324635e-15
8.1101265868e-11
4.81087366361e-12
1.40419753054e-13
1.82633094601e-14
8.18199880009e-15
3.52492607674e-15
4.70567220033e-16
3.04551669039e-17
6.3982735072e-18
3.13823465207e-19
6.18894163433e-21
2.39387502168e-07
2.56638090476e-07
2.90927350068e-07
4.56619850432e-07
1.09763835826e-06
2.14179622735e-06
1.23868766017e-06
1.03149936565e-19
7.32717962344e-16
1.53573353307e-10
8.1195664406e-12
2.68851178311e-13
1.78884584214e-14
8.97911253718e-15
3.86059973233e-15
6.08030961974e-16
4.80557503814e-17
8.16101374446e-18
3.89342175625e-19
7.79585774013e-21
2.3849969723e-07
2.58241435576e-07
3.08307559313e-07
5.02912053116e-07
1.12294233719e-06
2.00230056452e-06
1.28321859232e-06
4.97351200435e-13
5.16705106442e-27
3.68568623204e-10
1.31687790379e-11
4.96408782274e-13
2.02727510301e-14
8.87864123912e-15
4.24951225569e-15
7.76614791356e-16
7.49050508435e-17
1.05984055448e-17
4.81427151797e-19
9.72515419178e-21
2.41590473475e-07
2.67603775745e-07
3.36139165897e-07
5.59301952801e-07
1.14939606014e-06
1.87118873871e-06
1.28534712676e-06
1.03654507387e-09
5.5697936366e-22
1.48714249523e-09
2.04935063306e-11
7.61358464768e-13
2.53371648805e-14
8.30613050755e-15
4.44892600739e-15
9.33822318614e-16
1.12195594863e-16
1.62075613204e-17
5.99356925726e-19
1.21396168326e-20
2.52052041563e-07
2.87149481158e-07
3.76288854556e-07
6.24680771935e-07
1.17356719672e-06
1.74907609355e-06
1.25482166635e-06
1.60967843385e-08
0
8.99338694356e-10
4.29361847035e-11
1.68220407783e-12
4.56707995724e-14
9.1385493995e-15
4.23466982882e-15
1.07972997647e-15
1.61396411527e-16
2.33477479091e-17
7.5625412013e-19
1.53205043156e-20
2.72888217721e-07
3.19271545491e-07
4.29807610647e-07
6.96227563739e-07
1.19197081859e-06
1.63432123991e-06
1.19835832828e-06
4.43333220268e-08
3.69648719412e-22
2.74819599815e-11
7.56274549848e-11
3.30951700566e-12
7.09904961548e-14
1.07525605314e-14
4.30272004971e-15
1.21745552878e-15
2.23007965315e-16
3.19796943447e-17
9.69985175547e-19
1.97231213045e-20
3.06747095237e-07
3.65781480309e-07
4.96066938756e-07
7.68993193345e-07
1.20040514653e-06
1.5238249658e-06
1.12395271758e-06
7.1636270702e-08
0
3.49003949246e-13
1.17234862383e-10
5.77196779186e-12
1.28123613252e-13
1.2948425666e-14
4.34193764761e-15
1.3282952398e-15
2.96172648152e-16
4.20314886987e-17
1.26433279017e-18
2.60917350591e-20
3.55465309763e-07
4.26951461909e-07
5.71771575895e-07
8.36081366316e-07
1.19528112869e-06
1.41646796444e-06
1.03388439732e-06
9.0623669411e-08
9.95305606948e-18
0
1.44326916154e-10
1.05863755453e-11
2.41173646402e-13
1.63501109493e-14
4.26210774512e-15
1.41411125429e-15
3.78834285085e-16
5.35083670423e-17
1.67047430495e-18
3.56585630858e-20
4.18907273942e-07
5.00105275211e-07
6.5014772742e-07
8.89739138069e-07
1.17433172632e-06
1.31046726949e-06
9.4058462663e-07
9.78689771999e-08
3.71528221347e-18
0
2.26978551089e-10
1.46065744143e-11
4.92847557861e-13
2.34403144081e-14
4.80164559489e-15
1.49140652335e-15
4.68818829775e-16
6.65715814463e-17
2.2288585317e-18
5.04195794307e-20
4.93200516553e-07
5.78261199367e-07
7.21235785356e-07
9.23296137365e-07
1.13692873699e-06
1.20528867695e-06
8.44278337199e-07
9.27639823232e-08
9.60765804129e-18
6.80810699946e-17
3.68321016404e-10
1.89269433051e-11
1.02173624436e-12
3.91241925658e-14
6.09250761786e-15
1.6064432149e-15
5.65611665846e-16
8.15362957181e-17
2.99147612592e-18
7.34629353832e-20
5.6939220773e-07
6.50195074916e-07
7.74290666028e-07
9.33021381477e-07
1.0844413628e-06
1.10089644028e-06
7.45401170874e-07
7.72351962765e-08
3.55801007749e-18
9.90034196239e-18
2.38968943182e-10
2.51958551154e-11
2.07255412053e-12
7.52007747148e-14
7.74575276565e-15
1.87036607e-15
6.73573980598e-16
9.88774522071e-17
4.01864817282e-18
1.0932051873e-19
6.34551045648e-07
7.0345344666e-07
8.01712740924e-07
9.18977258744e-07
1.01995845441e-06
9.97243641176e-07
6.44490831693e-07
5.4853251074e-08
0
5.96980755879e-18
6.88894432985e-11
3.25373253953e-11
3.53039556366e-12
1.05376440887e-13
1.06778044804e-14
2.30869605557e-15
8.03931447445e-16
1.19239990704e-16
5.37804756508e-18
1.64293660362e-19
6.76482121136e-07
7.29565691537e-07
8.01881899122e-07
8.84967967149e-07
9.47686424981e-07
8.94062838868e-07
5.42225243747e-07
2.96038036316e-08
5.14302987964e-21
7.10318899417e-18
1.89682740632e-11
4.12076331856e-11
5.38374943311e-12
2.1821615223e-13
1.54831960697e-14
2.98341594894e-15
9.73502216077e-16
1.43675615724e-16
7.1473099192e-18
2.4676237708e-19
6.89630647918e-07
7.27901781665e-07
7.79536380004e-07
8.37510521994e-07
8.72187956378e-07
7.91542911655e-07
4.40461750532e-07
7.29599915076e-09
0
2.07601232806e-18
5.50851708764e-12
5.33096594555e-11
7.66281663735e-12
4.29897653623e-13
2.46882984132e-14
3.95265267076e-15
1.19855706617e-15
1.73786186884e-16
9.41964460155e-18
3.67462208644e-19
6.77688092457e-07
7.05341416616e-07
7.4303555318e-07
7.83608346183e-07
7.96003280735e-07
6.88058775499e-07
3.414124082e-07
1.68179672351e-10
6.1843283341e-22
3.49783865008e-18
1.87570116348e-12
6.99174159114e-11
1.03693560901e-11
7.76166608277e-13
4.30197223661e-14
5.29905980285e-15
1.48372185706e-15
2.11537576619e-16
1.23072951511e-17
5.3969485043e-19
6.50697013147e-07
6.71914055007e-07
7.00468711174e-07
7.27394247454e-07
7.17902964735e-07
5.80873600463e-07
2.47682656138e-07
6.57125094911e-14
4.31230421703e-23
7.50737424353e-19
7.74890893545e-13
8.69766542482e-11
1.36000275059e-11
1.36760538247e-12
4.58962551065e-14
6.55795669565e-15
1.7952659063e-15
2.57946236903e-16
1.59283079657e-17
7.79506529514e-19
6.18492583412e-07
6.35221788517e-07
6.5589911385e-07
6.68422510041e-07
6.33429270372e-07
4.67737757786e-07
1.59190430323e-07
0
0
6.63427473037e-20
3.93925215362e-13
9.46924809146e-11
1.73171756386e-11
2.12247019141e-12
9.37389986174e-14
9.35862090128e-15
2.07138743713e-15
3.13878977986e-16
2.0411765246e-17
1.10672111835e-18
5.85288418141e-07
5.96964451186e-07
6.0784779937e-07
6.02061464298e-07
5.37425815251e-07
3.49469290925e-07
7.75991006335e-08
8.82479809299e-17
0
0
2.4982366166e-13
8.9510677381e-11
2.10454428673e-11
3.15519430596e-12
1.76214115285e-13
1.47892412277e-14
2.43263642235e-15
3.80579027493e-16
2.5905021303e-17
1.54762104028e-18
5.48512622511e-07
5.52953645688e-07
5.50514218518e-07
5.22075063975e-07
4.27318527876e-07
2.31179227411e-07
1.39016752055e-08
3.94972355939e-17
1.15390430679e-22
0
1.89449989844e-13
7.51585380275e-11
2.45099620365e-11
4.50554619296e-12
3.18236799404e-13
2.31187078189e-14
3.14548881801e-15
4.61927579311e-16
3.26280256101e-17
2.14110844802e-18
5.01125772386e-07
4.96012298497e-07
4.77388259319e-07
4.24894170718e-07
3.06858625516e-07
1.23482271285e-07
3.71896634068e-13
3.09963256661e-18
2.39206686981e-23
2.67692215674e-19
1.85216241711e-13
5.92971485833e-11
2.74229141737e-11
6.20338548397e-12
5.4270480623e-13
3.80922438319e-14
4.06539431143e-15
5.62768309039e-16
4.09142025637e-17
2.94981966347e-18
4.34282350859e-07
4.18208820832e-07
3.82693882429e-07
3.09638820664e-07
1.8409835458e-07
3.44824585141e-08
0
0
1.47790684482e-19
4.0222590248e-20
2.29281086555e-13
4.63030457226e-11
2.9593243852e-11
8.032026323e-12
8.56946066441e-13
6.2574936937e-14
5.3512855196e-15
6.89858759642e-16
5.12877084625e-17
4.07959930365e-18
3.42374289248e-07
3.16119640667e-07
2.67093749881e-07
1.84726595564e-07
7.36265281985e-08
3.45676199791e-12
5.55759841491e-18
0
1.39905448168e-18
2.29502969457e-19
3.29648386325e-13
3.66826447778e-11
3.09049861055e-11
9.76485620656e-12
1.3472202911e-12
1.02884816652e-13
7.31057088785e-15
8.52936799998e-16
6.46201326936e-17
5.71150430714e-18
2.26746359099e-07
1.9435283507e-07
1.41607670338e-07
6.89639326291e-08
1.83605607211e-09
5.72899562399e-29
2.06163728605e-20
4.4585708451e-16
0
2.09227885365e-18
4.80289326586e-13
2.95386997569e-11
3.12079045643e-11
1.11727150203e-11
1.93387906702e-12
1.30387058431e-13
1.03203263767e-14
1.05851080644e-15
8.21559767134e-17
8.18468528013e-18
1.04803630515e-07
7.55834445518e-08
3.54045331418e-08
6.66830798895e-10
0
6.69852211798e-20
3.59320840489e-20
0
2.11179673311e-18
3.15908036851e-17
5.8288592935e-13
2.30149189939e-11
3.15915433233e-11
1.26514402376e-11
2.67164300397e-12
2.19127951858e-13
1.45931755101e-14
1.28340674859e-15
1.04429824374e-16
1.20840167662e-17
3.69717059372e-34
1.53944057588e-35
1.74919649584e-33
1.27515343988e-34
9.5370178468e-33
9.1780790068e-34
4.23043400971e-32
3.70310502691e-33
1.57025778612e-31
1.16534013593e-32
5.19329235412e-31
3.26690620791e-32
1.58641209148e-30
8.50956109587e-32
4.55026413129e-30
2.09390356762e-31
1.23843250931e-29
4.91246218042e-31
3.22606885319e-29
1.10603551703e-30
8.09517814997e-29
2.3996127094e-30
1.96517597646e-28
5.59506771583e-30
4.62770457566e-28
1.23066094473e-29
1.05904386185e-27
2.77987188373e-29
2.35914169401e-27
6.15118608592e-29
5.1233596913e-27
1.33358083399e-28
1.08612992912e-26
2.83392261265e-28
2.25034105914e-26
5.90536348478e-28
4.5627737748e-26
1.20750497503e-27
9.06312201947e-26
2.42593021736e-27
1.76421970991e-25
4.78209360181e-27
3.36268581939e-25
9.22619602538e-27
6.26414176605e-25
1.73872040795e-26
1.13856154285e-24
3.1950923169e-26
2.01779049642e-24
5.7216495954e-26
3.48656226215e-24
9.99649860466e-26
5.8759328101e-24
1.7017397302e-25
9.6513868808e-24
2.82042542817e-25
1.54291438749e-23
4.54555415323e-25
2.39924833089e-23
7.12118362354e-25
3.63167489853e-23
1.08569220691e-24
5.35904525436e-23
1.61458532111e-24
7.71749565817e-23
2.34865032302e-24
1.08520715765e-22
3.35518225281e-24
1.49062165897e-22
4.74147480527e-24
2.00494560346e-22
6.73068123745e-24
2.65299338016e-22
9.85045450402e-24
3.47854520705e-22
1.53851959758e-23
4.5732598685e-22
2.64320060259e-23
6.14048093695e-22
5.02428205886e-23
8.5875727166e-22
1.03068027382e-22
1.27003603897e-21
2.19886384168e-22
1.99682390139e-21
4.72959463059e-22
3.31495501928e-21
1.00530275416e-21
5.71746981764e-21
2.0875855498e-21
1.00475324763e-20
4.20822960002e-21
1.76767582607e-20
8.20361644651e-21
3.07194967237e-20
1.54271114602e-20
5.2263437523e-20
2.79439435677e-20
8.6597703395e-20
4.87368663118e-20
1.39431547631e-19
8.1914931264e-20
2.18189790516e-19
1.32989359621e-19
3.32612241064e-19
2.09371099531e-19
4.9625468379e-19
3.21595932639e-19
7.29644957646e-19
4.85852657672e-19
1.06572707991e-18
7.28056819859e-19
1.56141659266e-18
1.093495897e-18
2.31316140962e-18
1.65755302459e-18
3.49948963213e-18
2.54861500786e-18
5.84254369943e-18
4.56196605548e-18
)
;

boundaryField
{
    inletfuel
    {
        type            calculated;
        value           uniform 0;
    }
    inletair
    {
        type            calculated;
        value           uniform 0;
    }
    outlet
    {
        type            calculated;
        value           uniform 0;
    }
    axis
    {
        type            empty;
    }
    leftside
    {
        type            calculated;
        value           uniform 0;
    }
    burnerwall
    {
        type            calculated;