/*--------------------------------*- C++ -*----------------------------------*\
  =========                 |
  \\      /  F ield         | OpenFOAM: The Open Source CFD Toolbox
   \\    /   O peration     | Website:  https://openfoam.org
    \\  /    A nd           | Version:  dev
     \\/     M anipulation  |
\*---------------------------------------------------------------------------*/
FoamFile
{
    version     2.0;
    format      ascii;
    class       volScalarField;
    location    "0.3";
    object      edc::R_CH2(S);
}
// * * * * * * * * * * * * * * * * * * * * * * * * * * * * * * * * * * * * * //

dimensions      [1 -3 -1 0 0 0 0];

internalField   nonuniform List<scalar> 
1629
(
-5.29400908714e-26
-5.58069809943e-26
-5.54074591031e-26
-1.30454456883e-23
-1.98834815208e-23
-4.52841754738e-23
-1.57944135433e-21
-3.73032063321e-21
-1.79311557016e-20
-1.32127481219e-19
-4.67963555102e-19
-3.5758443744e-18
-9.8742067986e-18
-4.22056925709e-17
-2.64403553934e-16
-6.34557243483e-16
-3.05303463146e-15
-5.84564710503e-14
-7.63815321739e-14
-1.22148383194e-12
-2.27946677899e-11
-1.07567926046e-11
-1.47188305424e-10
-2.43431187001e-09
-2.21991095297e-11
-1.92134542851e-10
-1.71824585739e-09
-2.91653653451e-11
-1.54788864908e-10
-7.91490563741e-10
-3.04287772236e-11
-1.00185557391e-10
-3.2257326793e-10
-2.99873430815e-11
-7.43966017224e-11
-2.25853848332e-10
-7.43942869337e-11
-2.54277337513e-10
-1.3759654786e-09
-1.60541521383e-09
-6.95390928347e-09
-4.62787184438e-08
-5.88139492403e-09
-2.19361713687e-08
-1.24869816241e-07
-6.85780177788e-09
-2.04154203717e-08
-8.92239805141e-08
-5.06911268954e-09
-1.23621181546e-08
-4.25892366018e-08
-3.01729420568e-09
-6.31412114258e-09
-1.82697934701e-08
-2.00709921717e-09
-4.11931196742e-09
-1.23877503927e-08
-2.23719334752e-09
-4.96698683219e-09
-1.65920788361e-08
-2.73547043027e-09
-5.8587520197e-09
-1.83397770242e-08
-2.57457060703e-09
-5.00513755944e-09
-1.3716638887e-08
-1.92822071102e-09
-3.39291777712e-09
-8.14608235195e-09
-1.33750534966e-09
-2.2084365517e-09
-4.93055876637e-09
-1.09217412514e-09
-1.80450126211e-09
-4.11425916772e-09
-1.14212997329e-09
-1.90245629465e-09
-4.38673923151e-09
-1.22610620976e-09
-1.97627111445e-09
-4.33219348536e-09
-1.1804246846e-09
-1.80709427741e-09
-3.67969756035e-09
-1.04819037018e-09
-1.53332401874e-09
-2.93270388072e-09
-9.41461990385e-10
-1.33884069146e-09
-2.46929134967e-09
-9.29534577e-10
-1.30263737808e-09
-2.35962226211e-09
-9.99956841489e-10
-1.3791351502e-09
-2.44113550835e-09
-1.1137051832e-09
-1.50439094255e-09
-2.58054775771e-09
-1.23441089217e-09
-1.62953486266e-09
-2.69868831109e-09
-1.34225512572e-09
-1.73273311689e-09
-2.77191204612e-09
-1.45511122886e-09
-1.84299859306e-09
-2.86188461137e-09
-1.60311812173e-09
-1.9985157238e-09
-3.0261262687e-09
-1.81351057335e-09
-2.22983755649e-09
-3.30161219667e-09
-2.10864276568e-09
-2.56030461978e-09
-3.71266926823e-09
-2.5038177241e-09
-3.00414600804e-09
-4.26962484977e-09
-3.0047681171e-09
-3.56412403866e-09
-4.96691645061e-09
-3.62242885299e-09
-4.25059781245e-09
-5.81328145475e-09
-4.39727149093e-09
-5.10924546136e-09
-6.86740557921e-09
-5.43641133946e-09
-6.26218504866e-09
-8.28822780932e-09
-6.90759341489e-09
-7.89471110176e-09
-1.03019315374e-08
-9.03814724368e-09
-1.02516190545e-08
-1.31923378724e-08
-1.21620067584e-08
-1.36884217649e-08
-1.73622737067e-08
-1.68018855526e-08
-1.87560919154e-08
-2.34233476641e-08
-2.37057694558e-08
-2.62275120226e-08
-3.21977090081e-08
-3.37643457262e-08
-3.69953365668e-08
-4.45716935775e-08
-4.77686915793e-08
-5.18137813864e-08
-6.12080300467e-08
-6.61790620039e-08
-7.10828712327e-08
-8.23729040366e-08
-8.93823512555e-08
-9.51591422389e-08
-1.08367213582e-07
-1.19043052731e-07
-1.25786058599e-07
-1.41122022636e-07
-1.59044403903e-07
-1.66992727135e-07
-1.84990181934e-07
-2.13997366697e-07
-2.23433278072e-07
-2.44689220837e-07
-2.87074188459e-07
-2.98078216711e-07
-3.22720063941e-07
-3.76949652323e-07
-3.88991719203e-07
-4.15679862861e-07
-4.7690319984e-07
-4.88503248119e-07
-5.13780643404e-07
-5.69100894393e-07
-5.7754971779e-07
-5.95225306462e-07
-5.90727206333e-07
-5.90574068622e-07
-5.88478368459e-07
-4.32384787794e-07
-4.17023107913e-07
-3.81061866538e-07
3.75007934355e-08
7.01448767046e-08
1.43180972662e-07
-1.79290819228e-17
-1.21026547803e-15
-9.62023301994e-13
-2.2617010744e-10
-1.12044534208e-08
-8.00150403931e-09
-2.98351411111e-09
-9.25106482821e-10
-7.79126285917e-10
-7.5322824562e-09
-3.00118219714e-07
-7.00058870962e-07
-3.75704688227e-07
-1.39828731987e-07
-5.16548930255e-08
-4.00806845272e-08
-5.88248412356e-08
-5.95105447571e-08
-3.84509508988e-08
-1.99627787945e-08
-1.151289053e-08
-1.00876463329e-08
-1.08316275718e-08
-1.00890863267e-08
-7.94395139328e-09
-5.97351474784e-09
-4.8881855037e-09
-4.6114557421e-09
-4.66438839357e-09
-4.77765843123e-09
-4.82397650308e-09
-4.78669962006e-09
-4.79892442988e-09
-4.94818884302e-09
-5.27679794515e-09
-5.8065505928e-09
-6.53744378446e-09
-7.44662389796e-09
-8.53975805132e-09
-9.89843825215e-09
-1.17443415495e-08
-1.43674331349e-08
-1.81077299308e-08
-2.34340995525e-08
-3.10400589069e-08
-4.18026800833e-08
-5.65732714528e-08
-7.58589209941e-08
-9.97345042705e-08
-1.28445679327e-07
-1.64215255377e-07
-2.11867068321e-07
-2.76146681607e-07
-3.58771564941e-07
-4.54059263298e-07
-5.49023710792e-07
-6.18011844651e-07
-5.81101892301e-07
-3.24559571336e-07
2.49620084137e-07
-9.33605903473e-22
-1.5043873843e-21
-2.55188290662e-21
-3.57022445457e-21
-2.60561312264e-21
-1.18277187646e-21
-3.76641949655e-22
-9.01575034439e-23
-1.70804481824e-23
-2.63477084206e-24
-3.35667868744e-25
-3.56838301079e-26
-3.19410946086e-27
-2.43000964387e-28
-1.58858563096e-29
-9.04886510327e-31
-4.5779492444e-32
-2.10691819975e-33
-9.11360480176e-35
-6.35874890513e-36
-2.00254626866e-20
-3.4182049704e-20
-6.23594806139e-20
-9.07064331007e-20
-5.85044998246e-20
-2.27712269258e-20
-6.19823707711e-21
-1.27910143597e-21
-2.12526635759e-22
-2.91477410151e-23
-3.34420060826e-24
-3.24644432509e-25
-2.69639247676e-26
-1.93920297578e-27
-1.22431705809e-28
-6.89806186344e-30
-3.54412847378e-31
-1.70466119826e-32
-7.78206828781e-34
-5.66109399603e-35
-3.32710377985e-19
-4.94719364616e-19
-9.58334922042e-19
-1.34372550801e-18
-7.42559207443e-19
-2.48672258384e-19
-5.89009255209e-20
-1.07787529235e-20
-1.61736146842e-21
-2.02589922393e-22
-2.14825873551e-23
-1.95406978232e-24
-1.54545005567e-25
-1.07803605541e-26
-6.73300451638e-28
-3.82693451435e-29
-2.01904455645e-30
-1.01684355384e-31
-4.86915551581e-33
-3.55247026599e-34
-1.14560050664e-17
-2.93011855125e-17
-2.31140967587e-17
-1.71404220793e-17
-7.33595628832e-18
-2.14239403224e-18
-4.5707874033e-19
-7.73056773835e-20
-1.08408403947e-20
-1.28179368749e-21
-1.29699928695e-22
-1.13961079562e-23
-8.82576736579e-25
-6.11469108779e-26
-3.84304836665e-27
-2.22099488109e-28
-1.20003496245e-29
-6.23187025294e-31
-3.14316988672e-32
-2.75554066348e-33
-2.64172607958e-15
-2.64698938164e-15
-9.44858469559e-16
-2.6569763808e-16
-7.57022095929e-17
-1.83386825934e-17
-3.47687375145e-18
-5.40408119025e-19
-7.05409579782e-20
-7.8828113061e-21
-7.66447593517e-22
-6.58540144234e-23
-5.07453769989e-24
-3.55086188034e-25
-2.27688082445e-26
-1.34843538201e-27
-7.4666766982e-29
-3.97402372081e-30
-2.09687019793e-31
-2.32407082132e-32
-3.47705882776e-12
-1.84813697194e-12
-1.06338835249e-13
-5.47182155342e-15
-8.09842706998e-16
-1.49701551398e-16
-2.48658940257e-17
-3.50328790053e-18
-4.24552505953e-19
-4.50918872177e-20
-4.26775026103e-21
-3.65347464067e-22
-2.8607544025e-23
-2.05958141575e-24
-1.36356027662e-25
-8.30832277768e-27
-4.70077647968e-28
-2.54083923719e-29
-1.37727787002e-30
-1.67528167006e-31
-7.87033879461e-10
2.25272838226e-10
-1.79405986919e-11
-5.39362251507e-13
-1.21092437207e-14
-1.13067177108e-15
-1.52580902663e-16
-1.94647338696e-17
-2.22552709311e-18
-2.30553145377e-19
-2.19606965283e-20
-1.94138096636e-21
-1.59283540925e-22
-1.203064076e-23
-8.28323130908e-25
-5.18163238006e-26
-2.97189372226e-27
-1.61065995374e-28
-8.78571103339e-30
-1.07489507426e-30
3.88578998855e-08
-2.16075859278e-09
3.69952722906e-11
-1.71497596926e-11
-2.25054208672e-13
-6.49862146053e-15
-6.56869953728e-16
-8.04719164234e-17
-9.35649948504e-18
-1.02183806616e-18
-1.05360060179e-19
-1.01719211106e-20
-9.02340174315e-22
-7.21593449101e-23
-5.14328257025e-24
-3.26846926839e-25
-1.87644000584e-26
-1.00520927845e-27
-5.42330212593e-29
-6.27566765778e-30
-3.05993560628e-08
5.12571282678e-08
-2.00964489419e-09
-2.68083630258e-11
-5.14159729049e-13
-1.45269748988e-14
-1.48229207614e-15
-2.18235441299e-16
-3.1486613538e-17
-4.2243365953e-18
-5.17510144377e-19
-5.65825965736e-20
-5.42176500732e-21
-4.51338693061e-22
-3.26522047453e-23
-2.07148315304e-24
-1.17303977599e-25
-6.12952538511e-27
-3.23017147161e-28
-3.39672530819e-29
-1.02633567517e-08
-2.71432536598e-08
-7.01758381369e-10
-9.20996432299e-12
-4.36941925104e-13
-2.09722639661e-14
-2.94311597966e-15
-6.32501342638e-16
-1.27888808227e-16
-2.16668665018e-17
-3.04206803519e-18
-3.55943692369e-19
-3.49959993608e-20
-2.91867191212e-21
-2.08751451238e-22
-1.29871684211e-23
-7.16227445611e-25
-3.61444571476e-26
-1.84646664365e-27
-1.72718077179e-28
-2.39379281074e-09
-5.94748279111e-09
-6.51021848982e-10
-2.20704905918e-11
-1.30787846063e-12
-8.64608080824e-14
-1.57058833193e-14
-3.94515539203e-15
-8.70770357869e-16
-1.51987790537e-16
-2.12338200675e-17
-2.43153219313e-18
-2.32419413172e-19
-1.88081577378e-20
-1.30484018439e-21
-7.86887258229e-23
-4.1944199886e-24
-2.03388025131e-25
-1.00443271192e-26
-8.28294250996e-28
-3.47373723136e-09
-1.44876114932e-09
-7.81798922723e-08
-4.9668344469e-09
-1.65142326447e-10
-4.03143336806e-12
-2.53048981322e-13
-4.13142281231e-14
-7.55499829916e-15
-1.1805878654e-15
-1.52095570383e-16
-1.63391063845e-17
-1.48321904707e-18
-1.15007177102e-19
-7.69015714643e-21
-4.48219440266e-22
-2.30678123823e-23
-1.07517395683e-24
-5.14163912073e-26
-3.7338837076e-27
-4.91649397249e-08
-1.18283382551e-06
-7.29771029864e-06
-3.41887383229e-07
-7.8857097717e-09
-1.84018849199e-10
-4.55230449504e-12
-4.37125600161e-13
-6.15948578724e-14
-8.35216951298e-15
-9.80346552201e-16
-9.85013660447e-17
-8.50723771027e-18
-6.34812357288e-19
-4.11374358447e-20
-2.33075002311e-21
-1.16473365068e-22
-5.249430946e-24
-2.44517040968e-25
-1.57113857083e-26
-2.42646691607e-06
-7.17835377197e-05
0.000217767649762
-1.80616248389e-05
-2.37351032876e-07
-4.97107510013e-09
-6.58183386817e-11
-3.68851234292e-12
-3.90901025158e-13
-4.63411134104e-14
-5.06673383663e-15
-4.88094167624e-16
-4.104697344e-17
-3.00826700277e-18
-1.92240529373e-19
-1.07448034415e-20
-5.27976903704e-22
-2.32773179445e-23
-1.06640010526e-24
-6.11910211427e-26
-4.93304142001e-06
-0.000109777343931
0.000235020004039
-2.95423927307e-05
-5.41603143471e-07
-1.44778602331e-08
-2.71083358246e-10
-1.29482097548e-11
-1.3134807031e-12
-1.59648429731e-13
-1.81392700923e-14
-1.80763510034e-15
-1.562320958e-16
-1.16992437861e-17
-7.5958779099e-19
-4.28638570371e-20
-2.11014186737e-21
-9.24880350352e-23
-4.22015925397e-24
-2.18932878396e-25
-1.87936151592e-06
-2.18663583525e-05
-0.000181450523949
-4.83785465831e-06
-3.38146054047e-07
-1.39904012948e-08
-5.01153360972e-10
-2.35578120915e-11
-2.589589497e-12
-3.56155339823e-13
-4.55398194335e-14
-4.99658005928e-15
-4.6579503725e-16
-3.70089898913e-17
-2.51511197467e-18
-1.46770832987e-19
-7.38404397997e-21
-3.27413264928e-22
-1.50782551693e-23
-7.16939256583e-25
-5.27392125545e-07
-3.65350146812e-06
-2.1800902641e-05
-2.6968698117e-06
-1.81344495626e-07
-7.66508670598e-09
-5.17779771705e-10
-2.89563314908e-11
-3.69214373521e-12
-5.93373143941e-13
-8.80730265341e-14
-1.09602384832e-14
-1.13182007664e-15
-9.76715819476e-17
-7.09119608526e-18
-4.35679553188e-19
-2.2764063596e-20
-1.03663816968e-21
-4.87423608338e-23
-2.15290180221e-24
-1.77397187732e-07
-1.31120654624e-06
-2.06221492612e-05
5.12432403069e-05
-5.04698542373e-06
-7.02292262626e-08
-1.63558563236e-09
-4.43302481299e-11
-5.1502512034e-12
-8.86073041721e-13
-1.4791995992e-13
-2.07224186181e-14
-2.37629824732e-15
-2.24228098395e-16
-1.75426675022e-17
-1.14566033455e-18
-6.28004168905e-20
-2.96882694829e-21
-1.43731510877e-22
-5.96984782471e-24
-1.82130366586e-07
-2.14567930749e-06
-5.41448900512e-05
0.000130281888844
-1.69784744871e-05
-2.25466019907e-07
-4.97736667479e-09
-1.06389768366e-10
-8.76701018837e-12
-1.38580802406e-12
-2.40809238981e-13
-3.65738760495e-14
-4.57397303799e-15
-4.6823269208e-16
-3.93931438124e-17
-2.73881185697e-18
-1.58147048377e-19
-7.8085201948e-21
-3.91206501544e-22
-1.54421850111e-23
-2.87519964664e-07
-3.35095847676e-06
-7.11026962104e-05
0.000131955005362
-2.40020486516e-05
-5.08630931741e-07
-1.42099780377e-08
-3.50660877808e-10
-1.89451567473e-11
-2.45355753941e-12
-4.08190230028e-13
-6.38848578876e-14
-8.45730928326e-15
-9.23144716691e-16
-8.27298688272e-17
-6.09690929614e-18
-3.7062557417e-19
-1.9155799614e-20
-9.95297891748e-22
-3.76755706435e-23
-2.61185079781e-07
-2.51862141683e-06
-3.79483259519e-05
-1.14729446676e-05
-1.1270503366e-05
-7.20581713971e-07
-2.62400393802e-08
-9.18391728594e-10
-3.53516179074e-11
-4.08965252496e-12
-6.70483401854e-13
-1.08338435715e-13
-1.50737903855e-14
-1.7396951405e-15
-1.64950998979e-16
-1.28301772814e-17
-8.1963101614e-19
-4.43706681504e-20
-2.39258360486e-21
-8.75394167041e-23
-1.42374250068e-07
-1.03167309298e-06
-9.95081542847e-06
-4.40751673726e-05
-4.66509814496e-06
-3.31948561087e-07
-1.39838071757e-08
-8.51789257794e-10
-4.14662786784e-11
-5.33686576003e-12
-9.53904690054e-13
-1.67565102144e-13
-2.51210699171e-14
-3.09757444763e-15
-3.11842976471e-16
-2.56255989727e-17
-1.72151496728e-18
-9.77431949589e-20
-5.47382973081e-21
-1.95000930121e-22
-6.38871378045e-08
-3.7134569629e-07
-2.73144219597e-06
-2.07215808511e-05
3.38625879331e-05
-3.97571024436e-06
-7.06120110043e-08
-1.83008846991e-09
-6.12062013301e-11
-6.87799739006e-12
-1.26547649908e-12
-2.40263073899e-13
-3.91079980773e-14
-5.19309073298e-15
-5.58130114941e-16
-4.86218251617e-17
-3.44370714713e-18
-2.05561111881e-19
-1.19698646396e-20
-4.1805949457e-22
-3.65749798569e-08
-2.31458720398e-07
-2.11177266824e-06
-3.18654705847e-05
7.26904206788e-05
-1.09513550235e-05
-2.56125975051e-07
-7.06352691151e-09
-1.8000999896e-10
-1.17686260824e-11
-1.82166694428e-12
-3.44211142202e-13
-5.89713145203e-14
-8.34274350022e-15
-9.54302354284e-16
-8.8122993496e-17
-6.58812121918e-18
-4.14205766765e-19
-2.51014425539e-20
-8.64798345454e-22
-3.50469829574e-08
-2.54888202084e-07
-2.48600962992e-06
-4.25784163684e-05
7.9289118962e-05
-1.38979531946e-05
-7.44300289226e-07
-2.46462037945e-08
-7.05978696436e-10
-2.6363793742e-11
-3.04594001357e-12
-5.21977628151e-13
-8.94708016916e-14
-1.31496711253e-14
-1.5816771448e-15
-1.53988654651e-16
-1.21299241903e-17
-8.03325553489e-19
-5.06607470281e-20
-1.73037574362e-21
-3.77237095026e-08
-2.66050452655e-07
-2.35673538314e-06
-3.56181080516e-05
3.85467688554e-05
-1.32484859628e-05
-7.43379970607e-07
-2.50616550332e-08
-1.0283506619e-09
-3.64818591315e-11
-4.25408824778e-12
-7.38628034384e-13
-1.30829519871e-13
-2.01016211445e-14
-2.54022819204e-15
-2.60243484098e-16
-2.15753741488e-17
-1.5048042334e-18
-9.87015963553e-20
-3.35611298996e-21
-3.26914001467e-08
-2.03885245632e-07
-1.53036455986e-06
-1.74871555784e-05
-8.97192626026e-06
-7.48823431865e-06
-4.40916695964e-07
-1.45345182892e-08
-6.69365252428e-10
-3.69687278713e-11
-4.89571082805e-12
-9.26751070148e-13
-1.77169407683e-13
-2.91295379036e-14
-3.91070766996e-15
-4.2367478969e-16
-3.70523225347e-17
-2.72500975701e-18
-1.85890582506e-19
-6.31549060641e-21
-2.36043783034e-08
-1.29143661255e-07
-8.31471039995e-07
-7.58175812174e-06
-6.29672532585e-06
-4.58381508944e-06
-2.87819423124e-07
-8.66596257765e-09
-3.81454691476e-10
-3.32001890132e-11
-5.04273738896e-12
-1.05778258359e-12
-2.22310647037e-13
-3.97572190076e-14
-5.73609961812e-15
-6.61835751344e-16
-6.13193431961e-17
-4.7673728429e-18
-3.38429500548e-19
-1.15272626001e-20
-1.67359917475e-08
-8.52909425905e-08
-5.17994591044e-07
-4.36991657769e-06
-1.50865512183e-05
4.27861132484e-05
-5.87203244377e-06
-1.50784491421e-07
-3.79440851772e-09
-9.68714375506e-11
-6.96595021857e-12
-1.26557924622e-12
-2.73022300049e-13
-5.22019787099e-14
-8.07783393613e-15
-9.94490212729e-16
-9.78553285999e-17
-8.05852166313e-18
-5.95562071905e-19
-2.03953707856e-20
-1.34098152934e-08
-6.7561063145e-08
-4.0997704884e-07
-3.36066360367e-06
-2.33503784102e-05
4.80380140996e-05
-9.06920448085e-06
-4.66019534837e-07
-1.41883419611e-08
-3.93342335572e-10
-1.40485616008e-11
-1.78717225394e-12
-3.50668024448e-13
-6.81685727163e-14
-1.11006237879e-14
-1.4487388176e-15
-1.51147472898e-16
-1.31839525025e-17
-1.01380398237e-18
-3.49748670817e-20
-1.25539380403e-08
-6.29519401249e-08
-3.77177841893e-07
-2.9447957087e-06
-2.76839876521e-05
4.74931301654e-05
-1.16310089775e-05
-6.21234965263e-07
-1.86897126601e-08
-6.51599090844e-10
-1.99328110453e-11
-2.34530301195e-12
-4.4383289346e-13
-8.76966368803e-14
-1.49165814742e-14
-2.05328317917e-15
-2.2658867889e-16
-2.0912179689e-17
-1.67090273227e-18
-5.81332349671e-20
-1.23814346764e-08
-5.96842577268e-08
-3.38830538384e-07
-2.42776989375e-06
-2.37909930092e-05
2.75494200687e-05
-1.07238096227e-05
-5.93886145278e-07
-1.71906913568e-08
-5.68740644579e-10
-2.28759168097e-11
-2.72178107892e-12
-5.27596653685e-13
-1.08596712274e-13
-1.94352767535e-14
-2.82519056054e-15
-3.29702510878e-16
-3.21774903312e-17
-2.66733399744e-18
-9.36369332224e-20
-1.22267684821e-08
-5.58825508496e-08
-2.98716914352e-07
-1.97680587102e-06
-1.72419527792e-05
1.62712861099e-05
-8.38853695636e-06
-4.91655631875e-07
-1.60695040973e-08
-5.25993042153e-10
-2.46660649071e-11
-2.89954271193e-12
-5.86418756423e-13
-1.2804779544e-13
-2.43751993982e-14
-3.76071954219e-15
-4.65041298005e-16
-4.80118391805e-17
-4.1233403159e-18
-1.4608759861e-19
-1.18503196737e-08
-5.1132928387e-08
-2.57195025968e-07
-1.57891930994e-06
-1.22778856928e-05
1.15766139977e-05
-6.6205230073e-06
-3.94996135227e-07
-1.80301103283e-08
-5.87441113202e-10
-2.72733946248e-11
-2.92865569449e-12
-6.14018346032e-13
-1.43336054644e-13
-2.92865998017e-14
-4.82601874466e-15
-6.34559426503e-16
-6.93956118818e-17
-6.16820067899e-18
-2.20593840487e-19
-1.1292209697e-08
-4.60824782139e-08
-2.19054827054e-07
-1.25773653268e-06
-8.86320419652e-06
1.81151929902e-06
1.38613239127e-05
-2.86485092412e-06
-1.23178700011e-07
-3.12017855085e-09
-7.92643971188e-11
-3.75686787549e-12
-6.58235678946e-13
-1.55927455657e-13
-3.38703888073e-14
-5.96723133715e-15
-8.36433556883e-16
-9.70405326554e-17
-8.91919697485e-18
-3.22054688236e-19
-1.0940404863e-08
-4.26831691666e-08
-1.94383836324e-07
-1.06225989877e-06
-6.9776790851e-06
-8.36254862498e-06
3.24067187209e-05
-6.85323975711e-06
-3.29039017529e-07
-8.13746545098e-09
-2.06065366185e-10
-5.55523832293e-12
-7.45567960924e-13
-1.68734399559e-13
-3.81091679631e-14
-7.13610181376e-15
-1.06592777541e-15
-1.31251487755e-16
-1.24583602088e-17
-4.54254536874e-19
-1.09486471819e-08
-4.10518395245e-08
-1.7977331301e-07
-9.36892777439e-07
-5.73347553586e-06
-1.27153675291e-05
2.91728412953e-05
-8.74768235929e-06
-4.73320051061e-07
-1.24160540879e-08
-3.09519115645e-10
-8.05016355148e-12
-8.69054899668e-13
-1.83231788553e-13
-4.21516759115e-14
-8.31002901488e-15
-1.31818919538e-15
-1.72022310283e-16
-1.68251498459e-17
-6.19428235171e-19
-1.13539273637e-08
-4.09793051622e-08
-1.72678531834e-07
-8.58936979104e-07
-4.89982962106e-06
-1.37966832032e-05
2.69353741701e-05
-9.27820080008e-06
-5.56342516728e-07
-1.68042787696e-08
-4.22820708221e-10
-1.15331649476e-11
-1.02060251459e-12
-1.99356111324e-13
-4.61060048243e-14
-9.48301229264e-15
-1.58954834777e-15
-2.19191097253e-16
-2.20229209902e-17
-8.18397556451e-19
-1.21577844639e-08
-4.22483504996e-08
-1.71306836165e-07
-8.13820034427e-07
-4.32924117111e-06
-1.32082924391e-05
2.44249537232e-05
-9.05478111698e-06
-5.7916472539e-07
-2.20808017694e-08
-5.65838978513e-10
-1.60777780959e-11
-1.17060613361e-12
-2.13892104002e-13
-4.96891676013e-14
-1.06188487499e-14
-1.87398613488e-15
-2.7222735373e-16
-2.80028961729e-17
-1.05001731634e-18
-1.33189510029e-08
-4.45264096766e-08
-1.7356231435e-07
-7.8664175209e-07
-3.89351702867e-06
-1.16948002881e-05
2.11591680594e-05
-8.39921517763e-06
-5.79147333378e-07
-2.47178667343e-08
-6.36125531216e-10
-1.91258065451e-11
-1.22862676545e-12
-2.19163996112e-13
-5.20083745967e-14
-1.16054207019e-14
-2.15719158798e-15
-3.29622743201e-16
-3.46097820849e-17
-1.3091863334e-18
-1.47555487527e-08
-4.73941642378e-08
-1.77278792918e-07
-7.64220670362e-07
-3.49604097135e-06
-9.93591774355e-06
1.80571873331e-05
-7.58103741773e-06
-5.50734841494e-07
-2.63236041572e-08
-6.71260993477e-10
-1.96947420398e-11
-1.1581752034e-12
-2.10582194773e-13
-5.21895253801e-14
-1.22905465436e-14
-2.41651995738e-15
-3.88585071848e-16
-4.15464965324e-17
-1.58550883538e-18
-1.64638332944e-08
-5.0810730115e-08
-1.82299871373e-07
-7.45676330929e-07
-3.13472685118e-06
-8.24370322217e-06
1.56184875133e-05
-6.77585029835e-06
-5.15174318076e-07
-2.75065037126e-08
-7.15422586284e-10
-1.88192410237e-11
-1.0057481071e-12
-1.90210590943e-13
-5.00003637475e-14
-1.25593058658e-14
-2.62746588336e-15
-4.45423081647e-16
-4.84094257693e-17
-1.86474310067e-18
-1.8591841011e-08
-5.52141065867e-08
-1.90103786124e-07
-7.36072019173e-07
-2.83219583149e-06
-6.8642978216e-06
1.34430172534e-05
-4.81345728867e-06
-7.23174706227e-07
-4.10670787092e-08
-1.12059053509e-09
-2.36304146701e-11
-9.3664857442e-13
-1.66761085862e-13
-4.60393970013e-14
-1.2385754987e-14
-2.77037661279e-15
-4.96141003246e-16
-5.47463520067e-17
-2.13093157495e-18
-2.15370582396e-08
-6.17052853765e-08
-2.04085205726e-07
-7.4674218259e-07
-2.63808232113e-06
-6.11611584042e-06
9.06713529066e-06
6.08702480251e-06
-2.58547569989e-06
-1.526229339e-07
-4.7668733078e-09
-8.7916739076e-11
-1.67734039901e-12
-1.63484050724e-13
-4.21290915516e-14
-1.18879901203e-14
-2.83783053965e-15
-5.37083144539e-16
-6.0090042137e-17
-2.36658624204e-18
-2.57462189258e-08
-7.11549500271e-08
-2.25413359883e-07
-7.74870317439e-07
-2.51353813048e-06
-5.63380159758e-06
5.38294034299e-06
1.03989942881e-05
-4.3071229123e-06
-2.89076428954e-07
-9.84539195259e-09
-1.9014813739e-10
-3.36422847398e-12
-1.85670055176e-13
-3.94726392592e-14
-1.12341272228e-14
-2.83486868307e-15
-5.65512420367e-16
-6.39988461147e-17
-2.55293725171e-18
-3.16766980977e-08
-8.41632955361e-08
-2.53700005862e-07
-8.12520640942e-07
-2.41530803268e-06
-5.18791660751e-06
3.29022239463e-06
1.11014578573e-05
-5.25046505874e-06
-3.8670622975e-07
-1.49378524551e-08
-3.06453463756e-10
-5.51892174286e-12
-2.18853051515e-13
-3.77847655886e-14
-1.05199663527e-14
-2.77226453198e-15
-5.79995617595e-16
-6.61491275207e-17
-2.67380198314e-18
-3.9922002654e-08
-1.01402565288e-07
-2.88438753178e-07
-8.5408406634e-07
-2.32614982574e-06
-4.72666108522e-06
2.14337931783e-06
1.12969790112e-05
-5.68429108796e-06
-4.50052098947e-07
-1.91630322672e-08
-4.94187421139e-10
-8.50097385241e-12
-2.59787368134e-13
-3.65906498173e-14
-9.78080884888e-15
-2.66200298151e-15
-5.80537707774e-16
-6.6433634126e-17
-2.72116240472e-18
-5.13149960567e-08
-1.23738710034e-07
-3.29439174334e-07
-8.98206666909e-07
-2.25222826487e-06
-4.31064919042e-06
1.79765344546e-06
1.10947715814e-05
-5.82436555995e-06
-4.89478977335e-07
-2.31098794806e-08
-7.16295220214e-10
-1.43039928356e-11
-3.34438386565e-13
-3.63302374203e-14
-9.06750443369e-15
-2.51778452591e-15
-5.68438214094e-16
-6.49723001474e-17
-2.69666352299e-18
-6.67743026617e-08
-1.51734089499e-07
-3.75764870704e-07
-9.43887719741e-07
-2.19573569611e-06
-3.92771984478e-06
1.93221519312e-06
1.04734010278e-05
-5.77108164825e-06
-5.10173154081e-07
-2.66613643243e-08
-1.0034119075e-09
-2.46109224729e-11
-4.88798834744e-13
-3.79906369698e-14
-8.45685187456e-15
-2.35521811481e-15
-5.45922431856e-16
-6.20338973599e-17
-2.60808670724e-18
-8.69724791451e-08
-1.85200280307e-07
-4.2583982703e-07
-9.90962341627e-07
-2.15485962311e-06
-3.54038624359e-06
2.427321169e-06
9.38617866786e-06
-5.55453047546e-06
-5.14379657276e-07
-2.89653957617e-08
-1.36080714843e-09
-4.04437552735e-11
-7.97445440067e-13
-4.28212302643e-14
-8.02986620184e-15
-2.19064934411e-15
-5.15812115603e-16
-5.7959063949e-17
-2.46571246393e-18
-1.12027482565e-07
-2.23288053921e-07
-4.78564764708e-07
-1.04063586105e-06
-2.12189329021e-06
-3.09359186935e-06
3.23628997406e-06
7.67118084995e-06
-5.13780696132e-06
-4.9791893837e-07
-3.02577041041e-08
-1.6723222654e-09
-5.96404330643e-11
-1.32270992884e-12
-5.15840436968e-14
-7.81720458826e-15
-2.0368186739e-15
-4.81108634924e-16
-5.31200208959e-17
-2.28136723755e-18
-1.41680807629e-07
-2.654274713e-07
-5.34442738082e-07
-1.09344390201e-06
-2.07535983142e-06
-2.49432499165e-06
4.47010256275e-06
4.72813654502e-06
-4.36721273983e-06
-4.31954339383e-07
-3.11201121347e-08
-1.94898356265e-09
-8.22523746858e-11
-2.13824160577e-12
-6.56458498297e-14
-7.82370008068e-15
-1.90138150271e-15
-4.44571207392e-16
-4.7887202947e-17
-2.0682938847e-18
-1.76204053688e-07
-3.12324007786e-07
-5.94244902577e-07
-1.14141686092e-06
-1.95618260879e-06
-1.51970810211e-06
6.77912020395e-06
-2.03082410782e-06
-2.63388075826e-06
-2.76483342783e-07
-2.43657794838e-08
-1.8283569779e-09
-9.32584553913e-11
-2.94803101092e-12
-8.3005638592e-14
-7.9169291107e-15
-1.77827615456e-15
-4.07612300511e-16
-4.25412239026e-17
-1.83884384825e-18
-2.18563283451e-07
-3.68787824733e-07
-6.64859897672e-07
-1.1906249477e-06
-1.77312108629e-06
-3.58456659303e-07
8.51120246716e-06
-5.74866719871e-06
-1.0613496976e-06
-1.33062296326e-07
-1.4444826485e-08
-1.32173018399e-09
-8.43832299465e-11
-3.29737458911e-12
-9.82389987864e-14
-7.87143540851e-15
-1.64754997415e-15
-3.69558777083e-16
-3.71954369648e-17
-1.60132348255e-18
-2.74548792086e-07
-4.4259650386e-07
-7.56080530197e-07
-1.25265559567e-06
-1.56333596498e-06
6.41399543748e-07
8.52660754425e-06
-4.44428909514e-06
-7.19350473459e-07
-9.40789321473e-08
-1.09674313862e-08
-1.0860617799e-09
-8.41739428137e-11
-3.85387488535e-12
-1.20153023657e-13
-7.82908287926e-15
-1.50465944048e-15
-3.29616923979e-16
-3.18878305901e-17
-1.36186607406e-18
-3.48709866521e-07
-5.36306985546e-07
-8.61817692429e-07
-1.29402041009e-06
-1.24194055739e-06
1.53032963981e-06
7.82276294636e-06
-4.0999804363e-06
-6.84633702182e-07
-9.50231251011e-08
-1.1762783009e-08
-1.21116952779e-09
-1.11966390484e-10
-5.78007947728e-12
-1.83184341514e-13
-8.5267141376e-15
-1.38108012773e-15
-2.89646757015e-16
-2.67622483837e-17
-1.12962646328e-18
-4.40552061278e-07
-6.41365024637e-07
-9.51867872542e-07
-1.23524535674e-06
-6.78020800076e-07
2.40506562816e-06
6.00921463732e-06
-3.70145942025e-06
-6.66611604807e-07
-1.02062187183e-07
-1.39291905093e-08
-1.55387682102e-09
-1.69161206961e-10
-1.00147968317e-11
-3.49428354555e-13
-1.14266332163e-14
-1.3399332917e-15
-2.55020235416e-16
-2.21626620165e-17
-9.20073328395e-19
-5.38549986926e-07
-7.28178498958e-07
-9.56193535363e-07
-9.34032798833e-07
3.08082864133e-07
3.70309416956e-06
1.00888145008e-06
-2.57210782252e-06
-5.18237562755e-07
-9.0254171264e-08
-1.40046854717e-08
-1.75309917766e-09
-2.27514275026e-10
-1.61227483914e-11
-6.66840215207e-13
-1.85929963841e-14
-1.44096106565e-15
-2.3162826862e-16
-1.84869360278e-17
-7.50231893728e-19
-6.2213534885e-07
-7.56550857973e-07
-8.06903050171e-07
-3.42016094712e-07
1.45782988069e-06
4.8034595551e-06
-3.93260817637e-06
-1.14901911536e-06
-2.74926325587e-07
-5.67698626463e-08
-1.03636700135e-08
-1.48184656592e-09
-2.39035770301e-10
-2.12585417666e-11
-1.07448680478e-12
-3.12090952931e-14
-1.67643598813e-15
-2.19419714851e-16
-1.5828742488e-17
-6.27388127318e-19
-6.5762096366e-07
-6.79500541814e-07
-4.7253010227e-07
3.94849582826e-07
2.29412019483e-06
2.99688739782e-06
-2.58083805769e-06
-7.23200066906e-07
-1.78261679423e-07
-3.94437270979e-08
-7.87196571067e-09
-1.22054925639e-09
-2.32017926535e-10
-2.51071259318e-11
-1.53231748207e-12
-5.02094058858e-14
-2.00881020684e-15
-2.12742212925e-16
-1.39339576618e-17
-5.46078930113e-19
-5.47645445414e-07
-3.69490234959e-07
1.76368009975e-07
1.4009062337e-06
3.20846751517e-06
-3.02963032741e-06
-1.13182451842e-06
-3.60557282772e-07
-1.00106711366e-07
-2.48048521242e-08
-5.51969926464e-09
-9.27454911717e-10
-2.07395438412e-10
-2.6866844549e-11
-2.03157356468e-12
-7.69601272344e-14
-2.4360902934e-15
-2.05345964706e-16
-1.24524865806e-17
-4.94934770324e-19
-1.81526639906e-07
2.43459427531e-07
1.09153438778e-06
2.3471581598e-06
-1.56222508456e-06
-1.32961411339e-06
-5.14727478103e-07
-1.76044250785e-07
-5.3611613045e-08
-1.46662618491e-08
-3.60913251196e-09
-6.46773894963e-10
-1.71488452285e-10
-2.63481209456e-11
-2.49220382875e-12
-1.11701021896e-13
-3.01490824907e-15
-1.93310922462e-16
-1.11074770295e-17
-4.61829427081e-19
4.89588643675e-07
1.04006652753e-06
1.57865057646e-06
-1.66639899428e-06
-1.14634408451e-06
-5.34278970294e-07
-2.22022432132e-07
-8.23865542296e-08
-2.74884363459e-08
-8.27474471122e-09
-2.24709489816e-09
-4.17455719366e-10
-1.35182059084e-10
-2.47892977841e-11
-2.92603746586e-12
-1.56782648481e-13
-3.79201109304e-15
-1.72698991423e-16
-9.60903942187e-18
-4.29670651693e-19
-1.21566740162e-33
-1.03516259918e-34
-9.03766085363e-33
-1.07464352172e-33
-5.8948785048e-32
-7.3569076821e-33
-3.20100596138e-31
-3.48673749317e-32
-1.49853546746e-30
-1.4142552871e-31
-6.47093686762e-30
-5.44572562586e-31
-2.66718829249e-29
-2.04830133832e-30
-1.05840116981e-28
-7.55179701077e-30
-4.03864740252e-28
-2.71715847695e-29
-1.47438757091e-27
-9.47071842672e-29
-5.10882680114e-27
-3.16766858024e-28
-1.66560482258e-26
-9.9626073972e-28
-5.07864893925e-26
-2.93112222215e-27
-1.44691005423e-25
-8.11753414536e-27
-3.86761997333e-25
-2.11973452722e-26
-9.77287682971e-25
-5.25587213792e-26
-2.35505266305e-24
-1.24803543249e-25
-5.45501047985e-24
-2.86033685472e-25
-1.22099657102e-23
-6.36176929717e-25
-2.64785432753e-23
-1.37805867735e-24
-5.57083323624e-23
-2.90741981242e-24
-1.13857810984e-22
-5.97365867058e-24
-2.26317979956e-22