/*--------------------------------*- C++ -*----------------------------------*\
  =========                 |
  \\      /  F ield         | OpenFOAM: The Open Source CFD Toolbox
   \\    /   O peration     | Website:  https://openfoam.org
    \\  /    A nd           | Version:  dev
     \\/     M anipulation  |
\*---------------------------------------------------------------------------*/
FoamFile
{
    version     2.0;
    format      ascii;
    class       volScalarField;
    location    "0.3";
    object      edc::TStar;
}
// * * * * * * * * * * * * * * * * * * * * * * * * * * * * * * * * * * * * * //

dimensions      [0 0 0 1 0 0 0];

internalField   nonuniform List<scalar> 
1629
(
299.997967177
299.997215446
300.001091052
299.994379108
299.995367446
300.002682953
299.992112751
299.994277726
300.003241558
299.994648476
300.002537133
300.038592507
300.002180485
300.017931642
300.063927766
300.012254859
300.03638309
300.080288563
300.02994239
300.071248381
300.177459461
300.126699981
300.441433178
302.260894119
300.492738059
301.559626796
306.383436793
301.460500096
303.785216025
312.154356397
303.445692372
307.330297191
319.083903645
306.845047858
312.328199728
327.071316846
311.969338457
318.919707311
336.300719554
319.039322773
327.271578446
347.007280728
328.207435609
337.549844436
359.409885842
339.546486149
349.831897909
373.511844894
353.049461824
364.099375337
389.211279949
368.655032537
380.285872762
406.422193153
386.276629715
398.314126635
425.102703426
405.811984844
418.098652707
445.221821076
427.134319755
439.523389594
466.691989857
450.105501128
462.456884779
489.394082979
474.622347888
486.816767397
513.294202561
500.611234283
512.555890149
538.406016031
527.983551329
539.600370307
564.683126527
556.632022317
567.848670701
592.028409689
586.475463107
597.233611193
620.40174089
617.462935201
627.72378414
649.813047951
649.540156482
659.282311711
680.260122123
682.613679167
691.824297714
711.671450301
716.565755028
725.236095325
743.937151749
751.307763212
759.439971484
777.000600268
786.775082223
794.383811014
810.835896586
822.886276027
829.992436013
845.379599616
859.54611709
866.17124034
880.536361826
896.684437508
902.851405412
916.239921874
934.255684053
939.989865689
952.453405117
972.20996702
977.538645011
989.133688133
1010.47721125
1015.43058691
1026.22414041
1049.00489664
1053.61560193
1063.6729867
1087.75850579
1092.05419273
1101.43343757
1126.7124254
1130.72057137
1139.47961823
1165.8622594
1169.60922809
1177.80384688
1205.21526384
1208.725153
1216.40635473
1244.78773166
1248.08167776
1255.29423082
1284.61075126
1287.70712047
1294.48997749
1324.73249866
1327.64715935
1334.03401063
1365.2102082
1367.95611063
1373.97436972
1406.0862333
1408.67226136
1414.34050124
1447.33921643
1449.76877459
1455.09368142
1488.8066591
1491.07715534
1496.05259315
1530.10884066
1532.2139345
1536.82617438
1570.66408659
1572.60020365
1576.8423643
1609.8914411
1611.66656681
1615.55756713
1647.53992706
1649.17830336
1652.77250137
1683.92800373
1685.4672163
1688.84750428
1719.96511119
1721.44862936
1724.71016035
1757.03436393
1758.50475537
1761.74026617
1796.89721279
1798.3936184
1801.68828163
1841.4399788
1842.99196667
1846.40971749
1892.60123863
1894.22938661
1897.81451199
1952.29609561
1954.01075149
1957.78487439
2021.64876694
2023.45582224
2027.42994174
299.977433504
299.978838414
300.006377026
300.438186839
310.64580194
322.175953378
333.538234905
343.989521969
354.634253426
366.433814521
379.650203609
394.456542324
410.497147766
427.51861699
445.466503057
464.409172227
484.431801236
505.491858801
527.477024901
550.420740262
574.419430867
599.454537552
625.42279615
652.315014842
680.191169432
709.089642408
738.949397699
769.65706167
801.17877014
833.519704511
866.628678089
900.406348045
934.788653905
969.747007417
1005.25091763
1041.25323524
1077.69790353
1114.53115157
1151.72706047
1189.2751289
1227.16936171
1265.40862308
1304.00775015
1343.00010715
1382.4251089
1422.29990438
1462.56941029
1503.03514644
1543.29696266
1582.7943144
1621.02087338
1657.82649958
1693.60984422
1729.31401932
1766.31441198
1806.35070887
1851.24782002
1902.88879998
1963.12266039
2033.04146449
300.004431338
300.004457378
300.004512413
300.004537274
300.004547478
300.004551123
300.004551745
300.004551009
300.00454981
300.004548579
300.004547474
300.004546502
300.004545613
300.00454474
300.004543816
300.004542836
300.004541416
300.004541
300.004527308
300.004421607
300.007209261
300.007320754
300.007459988
300.007534963
300.007567581
300.007577413
300.007576548
300.007571508
300.007565679
300.007560535
300.007556547
300.007553698
300.007551795
300.00755065
300.007550079
300.007550265
300.007549495
300.007553626
300.007521994
300.007357874
300.008127097
300.009065874
300.009367346
300.009509008
300.009557413
300.009562872
300.009553565
300.009540638
300.009528516
300.009518743
300.009511626
300.009506897
300.009504136
300.009503016
300.009503241
300.009505319
300.009506003
300.009514277
300.009468209
300.009215943
299.993185419
300.010297386
300.01145883
300.011671248
300.01170827
300.011678653
300.011644401
300.011616787
300.011595439
300.011579621
300.011568665
300.011561749
300.011558096
300.011557207
300.011558667
300.01156343
300.011566989
300.01158094
300.011526805
300.011343315
299.982070503
300.011595594
300.014044526
300.014487994
300.014318936
300.014016541
300.013859518
300.013791495
300.013754587
300.013730765
300.013715177
300.013705781
300.013701273
300.013700946
300.013704303
300.013712952
300.01372157
300.013745984
300.013694329
300.01370505
300.009398894
300.023103995
300.024854746
300.025585313
300.02122544
300.017644801
300.016395827
300.016091122
300.016008136
300.015971775
300.015950622
300.015938512
300.015933265
300.015933955
300.015940071
300.015954162
300.015970669
300.016012574
300.015980269
300.016204673
302.095076596
304.574650997
300.804054532
300.265697282
300.091313822
300.033825397
300.020930402
300.018719421
300.018379142
300.018307564
300.018278606
300.018263624
300.018257888
300.018260176
300.018270071
300.018291368
300.018318801
300.01838431
300.018384011
300.01882247
380.788781453
1718.75098053
451.635565761
316.380695202
301.468504467
300.165608347
300.037582956
300.022703349
300.020968274
300.020750012
300.02070352
300.020685135
300.020679276
300.020683859
300.020698642
300.020728934
300.020770112
300.020863343
300.02090364
300.021558126
409.974985448
1190.01051062
458.903080318
321.346647542
302.630731094
300.358274806
300.069805592
300.029396121
300.023992927
300.023327336
300.023231493
300.023207227
300.023201578
300.023209229
300.023230042
300.023271012
300.023328406
300.023451965
300.023539069
300.024412952
425.112149004
917.527551408
465.080615633
321.737400098
303.467463768
300.586204247
300.120071477
300.040534205
300.027849058
300.026100816
300.025872791
300.025834446
300.02582889
300.025840395
300.025868368
300.025921535
300.02599729
300.026152877
300.026291689
300.02739
431.395983872
753.67648014
480.504065433
329.975006835
305.874859557
301.078619407
300.220197855
300.061641737
300.033511054
300.029217322
300.028648415
300.028572529
300.028565497
300.028581541
300.028617757
300.028684467
300.028780438
300.028969155
300.029163848
300.030493353
441.212998867
768.396933792
1595.78954223
440.017776472
321.528416231
303.167673552
300.520747165
300.112226504
300.043766467
300.033060649
300.031607659
300.031430123
300.03141592
300.031436837
300.031482302
300.031563724
300.031681492
300.03190398
300.032158241
300.033727264
455.983211701
796.34391642
2260.01542733
530.568483316
338.700033273
306.341618958
301.068205766
300.211417442
300.062992286
300.038392286
300.034858255
300.034422897
300.034385419
300.034410558
300.034466133
300.034563265
300.034704154
300.034960701
300.035277882
300.037096438
472.682974665
801.027403
2236.65639558
562.617972813
350.303632317
309.701734871
301.819107965
300.370227848
300.096210498
300.046416666
300.038604715
300.037580602
300.037480806
300.037507086
300.037573346
300.037687013
300.037852117
300.038142787
300.038526073
300.040606084
490.852015016
806.819206669
2012.25953194
613.152456733
370.527370933
315.536401368
303.083599513
300.63500011
300.152797991
300.059182726
300.043220462
300.04095995
300.04071246
300.040731392
300.040808312
300.040939157
300.041129376
300.041454136
300.041906732
300.044262094
508.485899861
798.884401839
1589.25532619
1520.38715613
459.76022074
330.485841547
305.675832633
301.113651463
300.25043665
300.080198979
300.049363893
300.044665657
300.044097285
300.044089242
300.044175568
300.044324013
300.044540088
300.044898912
300.045424184
300.048070718
525.56960021
792.683566448
1427.53259816
2145.86136196
534.279326176
345.339803502
308.842145217
301.78168985
300.398128258
300.113277167
300.05799289
300.048874258
300.047663702
300.04758793
300.047679964
300.047846123
300.04808866
300.048481617
300.049083192
300.052038576
542.481602932
789.415186845
1320.10465416
2328.29261001
570.109472297
356.027406549
311.919369573
302.577565743
300.598733823
300.162220914
300.07038773
300.05386391
300.051458992
300.051237233
300.051326604
300.051510082
300.051779575
300.052206889
300.052888732
300.056172458
559.68143863
789.393229559
1242.6263564
2222.83339015
626.487627745
369.154919088
316.016885482
303.68259715
300.885801286
300.235166654
300.088670341
300.060096153
300.055563846
300.055051808
300.055121379
300.055320864
300.055617696
300.0560798
300.056846291
300.060479644
577.574896546
793.183703803
1194.90769498
2080.36554674
709.831749284
398.617615087
324.71789805
305.766283911
301.370538522
300.352390837
300.117016775
300.068402979
300.060121183
300.059055025
300.059071211
300.059283646
300.059608061
300.060105634
300.060961625
300.064967687
596.186865443
799.550915702
1161.40522144
1890.48974358
1727.30028426
515.621154426
346.504870022
310.046002689
302.244434369
300.54799775
300.162425773
300.080204123
300.065381257
300.063286346
300.063185089
300.063404018
300.063755996
300.064289985
300.06524087
300.069644508
615.349111985
807.060504715
1133.49540096
1723.10999494
2181.97934297
606.3555293
367.466346976
315.163808101
303.443038666
300.835288307
300.231660474
300.097410877
300.071738495
300.06781137
300.067475535
300.067688008
300.068066971
300.068638585
300.069690343
300.074518228
635.189151026
815.947892775
1111.68183581
1607.44931727
2300.01466687
666.07698576
385.322992457
320.72608575
304.954926488
301.229752727
300.332486318
300.122556463
300.079785933
300.072736831
300.07196152
300.072142767
300.072546966
300.073157625
300.074316869
300.079597442
655.951973343
826.837279283
1097.64868376
1531.61352482
2230.15697756
751.061272038
416.230700043
330.233027021
307.39204898
301.83213056
300.484254335
300.160049469
300.090483588
300.078237774
300.076672494
300.076776876
300.077202305
300.077853531
300.079127554
300.084891026
677.657018227
839.490767191
1089.61416132
1478.22391599
2127.82448475
1491.59391123
509.548468798
349.857405159
311.729273137
302.808521783
300.718419619
300.216803434
300.105340383
300.084597235
300.081655293
300.081601349
300.082039847
300.082733074
300.084129884
300.090408096
700.157283526
853.238240186
1084.74529246
1433.97049657
1994.03530989
1974.87021179
601.751079463
371.612950225
317.114030354
304.115000199
301.046043406
300.298921303
300.126229567
300.092228548
300.086982595
300.086630966
300.087067024
300.087803256
300.089331615
300.096158219
723.47786906
868.129160191
1082.98450476
1399.45856978
1881.40924209
2275.5006623
686.270724546
392.567488438
322.87459288
305.666815711
301.467347906
300.411425217
300.155310583
300.101700013
300.092764326
300.091886762
300.092292396
300.093071593
300.094741032
300.102151237
747.757855926
884.472541154
1084.72932734
1374.14340073
1801.1566296
2333.84438948
782.290563601
416.943677353
330.102283338
307.695975334
302.029857645
300.566253808
300.196002525
300.113866714
300.099169807
300.097399447
300.097725908
300.098545984
300.100366794
300.108397312
773.108422937
902.466955107
1090.09435862
1357.49375468
1745.24616577
2287.73261259
905.444230009
458.181956777
342.436018278
310.957695987
302.873581539
300.791143485
300.254558616
300.130130438
300.106469894
300.103215734
300.103379701
300.104234802
300.106218008
300.114906961
799.480606402
921.904423231
1098.26084838
1346.82575627
1701.47214213
2201.34966605
1593.28164818
555.848417353
364.561924409
316.257086675
304.159613899
301.1213339
300.339621802
300.152552327
300.115081708
300.10940755
300.109269455
300.11014716
300.112304359
300.121691097
826.734038237
942.39468929
1108.10009652
1339.08247991
1662.15951599
2104.56280787
1986.36214857
654.21055237
389.283883957
322.768128549
305.841358019
301.568603333
300.458346531
300.18353497
300.125580915
300.116082151
300.115416514
300.116293136
300.118636129
300.12876115
854.863025326
963.972487564
1119.68788941
1334.66076066
1630.40461389
2021.51537089
2250.87468817
757.205932027
416.314582995
330.447466795
307.945852773
302.150252035
300.618691199
300.225974362
300.138740266
300.123395274
300.121850691
300.122684264
300.125224309
300.13612916
883.926587336
986.81721457
1133.40385631
1334.39237612
1607.90930441
1965.76231456
2339.35888989
889.497372017
455.041999767
341.587807778
310.925757503
302.949836894
300.838528942
300.28446242
300.15568984
300.131576905
300.128614683
300.129334299
300.132080944
300.143808321
913.895525878
1010.88953131
1149.0895992
1337.70996995
1592.36282929
1923.17709186
2332.05525446
1270.1387807
523.605342347
358.794841524
315.296767248
304.074553957
301.142147783
300.365315374
300.178017987
300.140960727
300.135769603
300.136259736
300.139218924
300.151812679
944.657300169
1035.97617398
1166.20918007
1343.20903339
1579.85777222
1881.69916527
2294.85373806
1610.24587827
605.315916869
379.977691353
320.860979402
305.532779106
301.541850992
300.47414294
300.207563653
300.151990606
300.143401152
300.14348108
300.14665233
300.16015771
976.147213763
1062.01304329
1184.62829042
1350.68145284
1570.72712076
1848.12167891
2225.55119437
1917.20894608
699.950457445
404.646056956
327.498434012
307.319623575
302.044867491
300.615876672
300.246346364
300.165228224
300.151626433
300.151024311
300.154396542
300.16886046
1008.35787099
1089.04651633
1204.47273038
1360.43842808
1565.78620095
1823.07137711
2166.40688829
2147.53791523
810.683099799
434.891983538
335.820034709
309.575389412
302.682056872
300.79914978
300.297138279
300.181431863
300.160608082
300.158923676
300.162469204
300.177940662
1041.29578272
1117.12044246
1225.86239609
1372.71806276
1565.37342585
1806.22223971
2124.3041806
2274.1760892
957.373833362
476.673258984
347.355851067
312.633865973
303.520744896
301.039343947
300.364095945
300.201676129
300.170575425
300.167224241
300.170889851
300.187420126
1074.92424183
1146.19138461
1248.74196487
1387.36461998
1568.891786
1795.44137308
2091.64167746
2329.68228376
1211.94228937
537.7687854
363.503074576
316.812290119
304.631686918
301.353923584
300.452289508
300.227359505
300.181842168
300.175986801
300.179681552
300.197324356
1109.16182935
1176.1565473
1272.93025263
1403.95305793
1575.23147351
1788.05328935
2061.5457547
2346.03105834
1462.28816001
613.428517367
383.921002205
322.149485166
306.043551251
301.754302332
300.566358488
300.260054129
300.194806764
300.185292092
300.18887237
300.207683513
1143.95347671
1206.95710606
1298.32549263
1422.23251127
1583.79834493
1783.12380933
2034.80551036
2335.58386528
1690.47039873
703.763405534
409.05357803
328.770875759
307.789986778
302.250973476
300.710802698
300.301498164
300.20996141
300.195247439
300.198498908
300.218534505
1179.27214267
1238.56709941
1324.87760914
1442.07276931
1594.34171171
1780.58595038
2012.58272273
2312.76143695
1881.16777914
810.136950206
440.444319923
337.126175775
309.972111572
302.865747734
300.891997781
300.353887267
300.227937194
300.205994641
300.20860725
300.229919532
1215.10107762
1270.95903939
1352.53059843
1463.36315659
1606.71617738
1780.5156457
1995.33151134
2291.25123065
2023.09359571
933.417701512
480.664145826
348.047369373
312.780741658
303.637391455
301.119461975
300.420151608
300.249567003
300.217724575
300.219257227
300.241885965
1251.42129814
1304.08965312
1381.20534594
1485.98142844
1620.80049307
1783.01189032
1983.48517814
2272.85089748
2115.15623407
1088.44529586
533.238915027
362.550689254
316.455420288
304.61465011
301.404674588
300.503825353
300.275899139
300.230688043
300.230525332
300.25448342
1288.21434601
1337.9090329
1410.81158493
1509.79039352
1636.43368268
1787.98021357
1976.58576678
2253.93511585
2177.72000547
1253.58735237
598.67230381
381.297784231
321.198144038
305.841860123
301.758339433
300.608553327
300.308145697
300.245201152
300.242508769
300.267758284
1325.47876129
1372.38838614
1441.28559393
1534.67854959
1653.4568389
1795.20928018
1973.75988334
2237.48105926
2221.15019795
1404.24927595
675.946264127
404.97069938
327.238948075
307.367411931
302.191020648
300.737992342
300.347652808
300.261645565
300.255323791
300.281740728
1363.23254203
1407.51909196
1472.58047235
1560.54413008
1671.73095284
1804.54841074
1974.50131009
2225.24988965
2250.46860779
1533.18942205
763.386556782
434.644878838
334.963104097
309.270178023
302.717610017
300.896434873
300.395983358
300.280483572
300.269104909
300.296423159
1401.49582808
1443.28271106
1504.62029612
1587.2440753
1691.10672221
1815.89013098
1978.62019022
2217.78128314
2268.91739568
1637.67980297
857.813890208
471.607537687
344.960415501
311.678181782
303.361066006
301.089437564
300.455025394
300.302277129
300.283998768
300.311726006
1440.25816375
1479.61139955
1537.26118049
1614.57806326
1711.44377051
1829.18824951
1986.02253442
2215.09115223
2278.72188314
1715.82499762
957.316906712
517.069279872
357.996120888
314.773163884
304.153334308
301.323880066
300.527002779
300.327693701
300.3001512
300.327448643
1479.42819648
1516.34332832
1570.26855889
1642.30763938
1732.64346071
1844.44888559
1996.62593495
2216.80213357
2282.22155049
1774.7857101
1054.76662433
571.077051597
374.885612604
318.7881067
305.13523093
301.607713559
300.614390816
300.357489797
300.31768444
300.34320571
1518.77098399
1553.18524432
1603.32526686
1670.21157087
1754.69248332
1861.74484203
2010.36093843
2222.32231653
2281.06471429
1818.64245094
1143.43022252
632.061749957
396.429663739
324.029343431
306.361116929
301.950432608
300.719899478
300.392491113
300.33666161
300.358343592
1557.87039638
1589.72121987
1636.09750072
1698.17421651
1777.72218148
1881.28893639
2027.35121011
2231.01916719
2275.9677915
1849.38970968
1217.62411825
697.958310925
423.420219597
330.923428657
307.910091499
302.364649492
300.846608231
300.433583587
300.357038303
300.371838589
1596.1974377
1625.52755585
1668.37759371
1726.30086804
1802.09549746
1903.5685894
2048.12576113
2240.60572174
2267.17122406
1867.49632229
1275.5731626
766.001797325
456.405950277
340.034116133
309.89854813
302.867982042
300.9981197
300.481692434
300.378595865
300.382200635
1633.33300034
1660.38994018
1700.24907143
1754.98934179
1828.41080266
1929.23869253
2073.08870989
2248.71308308
2255.44786821
1874.9112108
1320.88635602
830.913303955
495.137932128
352.05208046
312.501645461
303.486281879
301.178829099
300.537760488
300.400857784
300.387340765
1669.23580004
1694.48593484
1732.14095135
1784.84894095
1857.26866121
1958.57030324
2101.55075048
2259.71961383
2239.61439523
1873.29355025
1355.55067695
888.514883642
538.941817368
367.81382162
315.994524653
304.259691256
301.394441642
300.602713391
300.422973857
300.384461709
1704.3857929
1728.43678795
1764.79148134
1816.6198885
1889.20114994
1991.54031028
2132.73461339
2271.62218251
2218.63612508
1863.47486028
1380.08446207
935.863553422
586.989520091
388.135811128
320.772137015
305.246775403
301.652045069
300.677312477
300.443549173
300.369908698
1739.75611864
1763.24889768
1799.18490394
1851.14596195
1924.72793881
2028.1119976
2166.47768197
2279.87040885
2191.51175067
1846.02002257
1395.24189264
974.810342401
635.364377713
413.228323369
327.329157469
306.528767342
301.960041192
300.761891703
300.46042784
300.339119984
1776.70914077
1800.23731768
1836.52878401
1889.43780146
1964.55400985
2068.64531444
2201.91294604
2280.27897426
2157.00277187
1821.20659948
1401.72903203
1006.25664539
680.053835846
443.039084994
336.275927765
308.22498469
302.329276309
300.856136243
300.470363684
300.286373087
1816.95955749
1841.06104849
1878.4042167
1932.99143116
2010.08665941
2114.29073504
2227.77932913
2269.80785899
2114.88697885
1789.83272018
1400.456206
1030.38358896
718.077798237
477.209758166
348.269377458
310.508792644
302.774067046
300.958690642
300.468701176
300.205100657
1862.26102044
1887.30377748
1926.10147164
1982.57403616
2061.13487777
2163.8829184
2253.20307727
2245.8281835
2065.10268171
1752.7262033
1392.41313123
1047.67084836
750.317917878
513.037285995
363.683009361
313.621097215
303.314050407
301.066620982
300.448975344
300.088049127
1914.43600352
1940.6542856
1981.10264629
2039.32512575
2118.28853269
2205.7127379
2264.15779117
2206.64350891
2007.91136005
1710.72416487
1378.5975937
1058.83226788
777.504015146
547.018799958
383.417706289
317.974550767
303.983155879
301.175149286
300.402805446
299.928325457
1975.25436985
2002.6861085
2044.6086545
2103.79804587
2177.14017827
2242.42118865
2251.93145877
2152.17848585
1944.30566071
1664.96701581
1360.29727711
1065.00571996
800.378077127
577.881039861
407.377747647
324.177152037
304.838757844
301.276375558
300.318242611
299.715642603
2045.76069003
2074.29493753
2117.06752493
2170.17346368
2225.40543728
2255.55451967
2216.09423775
2089.1720024
1882.93852341
1624.65590225
1346.33867995
1073.45567284
823.806240438
608.142846971
434.806803456
332.939831196
305.86986478
301.34822414
300.180191687
299.434043899
300.039775206
300.06163338
300.036079491
300.051880158
300.034906351
300.048204239
300.035649428
300.049684394
300.037660857
300.051986178
300.040447095
300.054756448
300.043740583
300.057883992
300.047403984
300.061316581
300.051360215
300.065023668
300.055562037
300.068987063
300.059979999
300.073196866
300.064596731
300.077648796
300.069402733
300.082341839
300.074393627
300.087276753
300.079568206
300.09245498
300.084927443
300.097878008
300.090473512
300.103546709
300.096209298
300.109461008
300.102138057
300.115619316
300.108265558
300.12201588
300.114595722
300.128647157
300.121130347
300.135512631
300.127871846
300.142610048
300.134823135
300.149936144
300.141987978
300.157486258
300.149376545
300.165251189
300.156996042
300.173230872
300.164856265
300.181429869
300.172969747
300.189858001
300.181353007
300.19853206
300.190025608
300.207474385
300.199011146
300.21671346
300.20833672
300.226282515
300.218032862
300.236218465
300.228131271
300.24655852
300.238665308
300.257338808
300.249669345
300.268592258
300.261175503
300.280343724
300.273207567
300.292603903
300.285772444
300.305356535
300.298849377
300.318541352
300.312368858
300.332023913
300.32618065
300.345555874
300.339999546
300.358708822
300.353336626
300.370791704
300.36542542
300.38076985
300.375133475
300.387169929
300.380883155
300.388014262
300.380568425
300.380754275
300.371570059
300.362345338
300.35066823
300.32917311
300.314104639
300.277188986
300.25753376
300.201890148
300.176051385
300.098323353
300.063783175
299.960609007
299.915396265
299.78418739
299.725909736
299.565237005
299.492084885
299.30243518
299.211546093
298.998792423
298.82825388
298.565062919
)
;

boundaryField
{
    inletfuel
    {
        type            calculated;
        value           uniform 294;
    }
    inletair
    {
        type            calculated;
        value           uniform 294;
    }
    outlet
    {
        type            calculated;
        value           nonuniform List<scalar> 
26
(
1780.80792926
1779.58983946
1776.91375729
1773.14118032
1764.61148461
1745.55185703
1716.92255642
1677.03231617
1624.21900068
1556.99907768
1474.24416484
1375.38930733
1260.66400487
1131.33191823
989.881289607
840.136864019
687.687947857
540.455542644
409.113719878
326.788283539
302.652050022
297.042220238
295.384152314
295.30276799
295.713004048
295.592102719
)
;
    }
    axis
    {
        type            empty;
    }
    leftside
    {
        type            calculated;
        value           uniform 294;
    }
    burnerwall
    {
        type            calculated;
        value           nonuniform List<scalar> 7(294.008037579 294.008005343 294.267125726 294.020270754 295.058143962 343.858044975 557.72702934);
    }
    front
    {
        type            wedge;
    }
    back
    {
        type            wedge;
    }
}


// ************************************************************************* //
