/*--------------------------------*- C++ -*----------------------------------*\
  =========                 |
  \\      /  F ield         | OpenFOAM: The Open Source CFD Toolbox
   \\    /   O peration     | Website:  https://openfoam.org
    \\  /    A nd           | Version:  dev
     \\/     M anipulation  |
\*---------------------------------------------------------------------------*/
FoamFile
{
    version     2.0;
    format      ascii;
    class       volScalarField;
    location    "0.3";
    object      epsilon;
}
// * * * * * * * * * * * * * * * * * * * * * * * * * * * * * * * * * * * * * //

dimensions      [0 2 -3 0 0 0 0];

internalField   nonuniform List<scalar> 
1629
(
1231.98851065
3593.49692644
12411.2630512
1875.51722509
4840.17797505
18319.6403693
2222.05937379
5387.05595836
22629.2155146
2541.1003909
6255.92266727
32449.0962222
2919.5682214
7809.71128331
40622.1816582
3442.71288831
9931.90222194
42919.7558518
4221.40964914
12430.5161056
41062.9525654
5322.30135268
14744.4723661
36638.7196722
6670.44379662
16233.0155225
31249.1838163
8019.48794408
16614.7084599
26166.6636969
9028.05385649
15956.0439062
21787.1262941
9442.6916574
14542.0423442
18056.4888349
9222.87503956
12722.9102273
14859.9946441
8508.60107766
10797.7824692
12131.8008521
7508.42872357
8963.20158059
9825.57177186
6412.69701032
7326.04402357
7903.92698479
5354.69427823
5929.64848582
6330.77278468
4407.2053655
4775.06289611
5063.85029907
3597.43966463
3839.13230014
4054.41354231
2925.40366605
3089.1043591
3253.85616789
2377.91741768
2491.96483306
2619.9816939
1936.92505106
2018.47083079
2119.15885554
1583.6778481
1643.56003431
1724.0543632
1301.13686034
1346.22381571
1411.55729269
1075.08837607
1109.68200204
1163.11642479
893.999023392
920.917743696
964.775997348
748.452703353
769.68339221
805.874680327
630.862035677
647.820878092
677.861439744
535.279131641
548.943783071
573.936561292
457.119668982
468.164884504
488.90114277
392.819294534
401.75486644
418.891661241
339.531669823
346.777167326
360.924651836
295.005430142
300.897069206
312.578917369
257.525708962
262.319542814
271.947969033
225.778092041
229.674555082
237.584951736
198.707979267
201.873815074
208.359660101
175.460872214
178.035185721
183.350846235
155.364492861
157.459506243
161.815303158
137.899525654
139.604546876
143.170918048
122.658134623
124.045917209
126.964091095
109.308506383
110.439607564
112.829197399
97.5778302284
98.5022753711
100.463512007
87.2447803073
88.0031014248
89.6180531898
78.1294810659
78.7541219359
80.089014579
70.0825172377
70.5995170082
71.7078867463
62.9769382869
63.4074304738
64.33304684
56.704494687
57.0657231502
57.844532945
51.1739097002
51.4798805138
52.141236233
46.3086202698
46.5706288506
47.1382955267
42.0440818667
42.2711790987
42.7642604531
38.325106454
38.5244898753
38.9582176958
35.1029231854
35.2802445119
35.6666083615
32.3318823687
32.4915292387
32.8398637195
29.9669556407
30.1123549482
30.4299848553
27.9636658621
28.0975874906
28.390464832
26.2806605626
26.4054743888
26.6787215752
24.8838680366
25.0017511094
25.2600908441
23.7514688809
23.8645894601
24.112743983
22.8782103822
22.9888609966
23.2318349209
22.2776999408
22.388324565
22.6314559771
21.9865417505
22.0997966079
22.3488883586
22.0836987816
22.2028993456
22.4651805712
22.8268650819
22.9534792689
23.2319570397
1404.89075229
24310.650515
33279.2933284
33860.3025819
30141.9277735
25609.6249474
21681.038565
18432.0416058
15621.8024649
13130.6893043
10937.4993001
9029.89255149
7396.30319256
6024.02497537
4893.25013521
3973.04033906
3228.00901187
2626.31226962
2143.03122228
1757.07090364
1448.49656341
1200.36997441
1000.14939102
838.388020742
707.165394107
599.903741649
511.508695408
438.29024468
377.437919829
326.565703056
283.719792251
247.424034037
216.54461757
190.143199602
167.441778645
147.821525698
130.801264898
115.994705615
103.078987674
91.7848150325
81.8899369681
73.210794702
65.5940569051
58.9102115766
53.0499190387
47.9212206413
43.4466664791
39.5603126171
36.2043604722
33.3257685271
30.8739236437
28.8005448778
27.0619820758
25.623067253
24.462008972
23.574378375
22.97474352
22.7010183634
22.8362269901
23.6255743989
0.755951872123
0.102482279214
0.0651903675075
0.0603354704499
0.0595722837008
0.0594120004742
0.0593595224671
0.0593366708559
0.0593261432145
0.0593217209985
0.0593204077152
0.0593209020536
0.059323000377
0.0593273343791
0.0593352344304
0.0593504058455
0.0593726161749
0.0594632190634
0.0611393790074
0.230509114536
0.718924183376
0.128111404524
0.072398507167
0.0618675813081
0.0595097005855
0.0589170813872
0.0587375308449
0.0586711285058
0.0586441708133
0.0586335399849
0.058629967672
0.0586296054338
0.0586312716884
0.0586354332501
0.0586436251056
0.0586611128376
0.0586883509696
0.0588307154062
0.0616964875153
0.241414006804
0.886481783117
0.239007183181
0.0926830785654
0.0666201191421
0.0604046389054
0.0588678020211
0.0584356727008
0.0582883529076
0.0582304935484
0.0582065253771
0.0581967866024
0.0581934585667
0.0581937342193
0.0581976085139
0.0582066686119
0.0582278634585
0.0582641655134
0.0584582340638
0.062206545099
0.24913781398
119.766183486
2.2265256016
0.21652057783
0.0823057173002
0.0633478954802
0.0593215904536
0.0582749088634
0.0579474342829
0.0578251852252
0.0577743295336
0.0577522670502
0.057743047544
0.0577406691955
0.0577441121916
0.0577550022581
0.0577824591484
0.0578375317122
0.0581162081503
0.0630387979191
0.278677937795
799.815257603
8.34116911888
0.405066943584
0.107293918708
0.0688337985593
0.0604533556199
0.0582964082873
0.05765783432
0.0574306699875
0.0573387330908
0.0572988204098
0.0572813838003
0.0572753745343
0.0572781315201
0.057291365224
0.057326171122
0.0574095752443
0.0577955085077
0.0642363991357
0.324056591236
1858.22633608
24.1298081339
0.805565066829
0.16060788355
0.0794115153283
0.0626568373341
0.058574634789
0.05743204395
0.057049103981
0.0568997454556
0.0568358052102
0.0568075843621
0.0567968371252
0.0567985330777
0.0568144853835
0.0568574367668
0.0569786717099
0.0574817308823
0.065890502982
0.376052019951
2989.4579587
54.0068091545
3.86828236042
0.520850587764
0.120052028976
0.0681951607915
0.0592988332089
0.0572802267928
0.0566801473819
0.0564573631442
0.0563631856806
0.0563214359863
0.0563047300017
0.056304961806
0.0563239962959
0.0563757033863
0.0565433126772
0.0571676869919
0.0678385437894
0.426812545319
4120.09975377
198.593233336
15.3482236968
1.81230007307
0.256715792479
0.0826392532669
0.0609284349359
0.0572280869578
0.0563224839668
0.0560112465616
0.0558811212615
0.0558230216347
0.0557990148051
0.0557973452653
0.0558197410851
0.0558806434786
0.0561002368927
0.0568552824354
0.06990050929
0.4703694024
5160.58798744
488.0378179
15.0230957612
1.91756623969
0.338318318725
0.0988293152652
0.0634074974263
0.0573269118383
0.0559853799354
0.0555633415212
0.0553904441458
0.0553127484121
0.0552798350448
0.0552757006439
0.0553014766788
0.055371917864
0.055644886336
0.0565494376298
0.0719852555942
0.504465772322
6127.57956176
708.531307377
18.9427640837
1.66583844914
0.375596815287
0.115246573455
0.0670000581565
0.0577325181964
0.0557076364828
0.0551220254713
0.054893515711
0.0547916339435
0.0547477312774
0.0547403568894
0.0547691433792
0.054849550458
0.0551734930077
0.0562532223028
0.0740599914797
0.529822384086
6827.50349621
921.129214995
26.582106917
2.11626914083
0.491324733864
0.14537045363
0.0735247202084
0.0587910365603
0.0555629258453
0.054702806705
0.0543943328138
0.0542613397561
0.0542037002221
0.0541920471259
0.0542230294725
0.0543140170521
0.0546840554109
0.0559669409956
0.0761119985943
0.548091504079
6987.8103054
1245.84957076
68.4445146612
5.51378978318
0.938147234099
0.21966995046
0.0865202096796
0.0609751631993
0.0556329147759
0.0543219281586
0.0538972495722
0.0537238897592
0.0536490793804
0.0536318138337
0.053663725338
0.0537660351264
0.054176168152
0.0556891800851
0.0781321703809
0.560830248371
6664.55822117
1619.26442762
194.903632846
10.510728552
1.42661478695
0.312368820287
0.104831977439
0.0643836967646
0.0559640610878
0.0539901248001
0.0534054314277
0.0531811559212
0.0530853046038
0.0530608234461
0.0530919949779
0.0532063363534
0.0536505325178
0.0554179169582
0.080111650865
0.569314443806
6134.97270323
1937.22196662
391.45032722
15.8626684167
1.71144881306
0.391013787056
0.125710200377
0.0690154992231
0.0566235092306
0.0537257520084
0.052922769644
0.052634727892
0.0525136327472
0.0524801500826
0.0525086370224
0.0526355328751
0.0531085257316
0.0551512251285
0.0820421543756
0.574577942995
5535.4406961
2178.07902304
554.830655144
23.3612381005
2.35478716317
0.521777630294
0.156960356091
0.0759518414871
0.0578158374845
0.0535728395637
0.052457629975
0.052086450605
0.0519350461671
0.0518906230265
0.0519143726941
0.0520540677942
0.052551870129
0.0548875942373
0.0839163978428
0.577456291229
4917.5885843
2305.46672297
698.003102266
45.6929269417
4.15731595994
0.776785090323
0.20771752617
0.0864311681211
0.0597461849027
0.053576985718
0.052019506822
0.0515381886499
0.0513502607289
0.0512928038415
0.0513098028556
0.0514622322769
0.0519823903263
0.0546259703447
0.0857282879577
0.578620196407
4310.49571578
2293.59628869
850.00145287
107.060960487
6.65947104695
1.01228143993
0.258850791186
0.0985407260928
0.0622813665487
0.0537446260069
0.0516130254236
0.0509909944505
0.0507597163846
0.0506870677425
0.0506954462453
0.0508602365121
0.0514018626185
0.0543656601638
0.0874730869622
0.578608713975
3742.62650435
2206.81229913
992.060105154
202.260577
9.80093095944
1.16863702846
0.298116238916
0.110580435514
0.0652966732182
0.0540970876786
0.0512501679317
0.0504480786341
0.0501643655798
0.0500739099906
0.0500718650788
0.0502483168278
0.0508119504481
0.0541062114261
0.0891476063861
0.577860108215
3226.12203711
2079.65868699
1110.45422282
305.558821614
16.5915913963
1.48465084728
0.351486533969
0.125889998721
0.0693698943264
0.0547804216306
0.0509734305376
0.0499210821093
0.0495675142578
0.0494545559451
0.0494398754782
0.0496268527494
0.0502141996798
0.0538473175044
0.0907503895062
0.576736352498
2761.98054495
1926.3522639
1176.06345961
386.087309964
25.2287170479
2.41203897013
0.498170751929
0.156572975895
0.0763532929358
0.0561250419405
0.0508590310858
0.0494303811816
0.048975201596
0.0488311811466
0.0488006555323
0.0489964225789
0.0496100500012
0.0535887492261
0.0922818553902
0.575540758327
2349.09188987
1752.80458877
1176.45223612
457.029526913
45.4694130394
4.55510219272
0.800829484209
0.213622768736
0.0880428216374
0.0584162615108
0.0509644587298
0.0489908465649
0.0483922324432
0.048205751094
0.0481554280223
0.0483576987728
0.0490008156429
0.0533303038335
0.0937444062335
0.574530491665
1989.93245675
1573.94792942
1128.34006772
532.901694182
94.4510168043
7.40517176278
1.07991946638
0.271961311573
0.101932393646
0.0614575814387
0.0512789063763
0.0486017482871
0.0478185816708
0.0475785742204
0.0475048935518
0.0477112294088
0.0483876246525
0.0530717665055
0.0951424992699
0.573925468104
1685.16951035
1406.09250644
1069.06905186
596.527383085
159.976950356
11.3159596873
1.32126322699
0.323511423524
0.116803369009
0.0652050105733
0.0518315746208
0.0482728629016
0.0472555205793
0.046949510329
0.0468492846389
0.0470573788519
0.0477713796315
0.0528128983917
0.0964827106732
0.573917753145
1428.4037982
1251.31711071
1004.73700252
636.787742571
210.26002731
16.7222576915
1.89286996444
0.42101045214
0.139893266713
0.0707599032031
0.0528314669471
0.0480525735768
0.0467138597018
0.0463206058672
0.0461891056471
0.0463965262994
0.0471527990102
0.0525534624163
0.0977736818552
0.574669099445
1211.19849832
1106.31695347
929.09031876
644.934843159
247.313139664
27.2677118408
3.12338844868
0.606815468834
0.178267400702
0.0792892024371
0.0544820272988
0.0479860521723
0.0462045576217
0.0456942685142
0.0455249931066
0.0457291050671
0.0465324721731
0.0522932705135
0.0990259460411
0.576308358353
1027.87481565
972.26408369
846.34254985
626.439046625
288.423603346
51.0293540082
4.88533958874
0.807988035119
0.220328839026
0.0893849168372
0.0566257312581
0.0480541076207
0.0457234967405
0.0450687818602
0.0448564932151
0.0450552857286
0.0459108323116
0.0520322209972
0.100251729268
0.578936183458
874.482672712
852.623316154
766.680010818
598.029421013
323.986642589
84.6547869749
7.46819936546
1.01396987767
0.258743982646
0.0996118079564
0.0590620338861
0.0482331465133
0.0452662611659
0.0444419166316
0.0441826993717
0.0443751091615
0.0452881933295
0.0517703539483
0.101464759219
0.582628458774
746.457066505
747.389888562
692.58718111
565.776964944
350.112605388
121.401005382
11.8640125721
1.32788908481
0.306163746977
0.111692515183
0.0620940430648
0.0486017419357
0.0448568043438
0.0438204540409
0.0435053562203
0.043689524661
0.0446650614536
0.0515079975641
0.102680157169
0.587439554793
639.07000253
654.518117603
623.162230331
530.477968251
362.498785664
147.83996176
17.6105387747
2.00626899828
0.40707880336
0.132509061285
0.0668297909774
0.0493729855144
0.0445495573736
0.043221091713
0.0428299014892
0.0430009583331
0.0440424525542
0.0512459788421
0.103914625507
0.59341411168
548.380576395
571.946261676
557.054043076
490.391406466
360.051282037
165.578734445
26.6252061868
3.24839010752
0.589083948349
0.167402985059
0.0742367050801
0.0507166591111
0.0443825874571
0.0426554649336
0.0421608555078
0.0423118304082
0.0434216042932
0.0509856900887
0.105186590324
0.600575220428
471.726458045
499.050362126
495.357690529
448.095357196
347.084652401
183.383776501
43.4605021787
4.98015223535
0.794620386124
0.207358018581
0.0833263417893
0.052532440508
0.0443419131235
0.0421196886921
0.0414973235949
0.041622557146
0.0428032168992
0.0507288823144
0.106516112176
0.608928530718
407.127606132
435.738470016
439.997935896
408.079204717
330.526793105
197.440701312
64.1951043261
7.5060719124
1.03858660939
0.25034147078
0.0936444462277
0.0547842211859
0.0444292629733
0.0416131371027
0.0408377909811
0.0409325730391
0.0421873802923
0.0504774536365
0.107924309221
0.61846587233
352.567506663
380.906154577
390.588342447
370.552984642
311.894788991
204.97637908
82.1414035118
10.9952486362
1.45440946692
0.316678972687
0.108090340041
0.0579334227289
0.0447362064558
0.0411582350678
0.0401874903872
0.0402432125007
0.0415744859563
0.050233607898
0.109432747192
0.629168618613
306.190345801
333.07821267
345.903715422
334.468126668
290.583223418
205.648380084
95.0406793919
16.2873577191
2.17803570386
0.425545013583
0.129816137501
0.0625263342197
0.0453672571116
0.040780852617
0.0395539044813
0.0395570436407
0.0409655168422
0.0500001609914
0.111063473734
0.64101212013
266.605978839
291.285761572
305.528702203
300.110430682
267.697417387
201.86280151
105.868792358
24.7790945648
3.25182300695
0.567477102225
0.157076850814
0.0683934066162
0.0463111382961
0.0404808755507
0.0389370183438
0.0388742384951
0.0403609556223
0.0497803673918
0.112839267686
0.653970247098
232.782781042
254.971414578
269.62867565
268.616237665
245.478480638
194.866360578
114.672888358
35.55589727
4.87485747677
0.75260972124
0.18895846969
0.0752780321643
0.0475274548883
0.0402507851318
0.0383335075013
0.0381930632334
0.0397603512419
0.0495773790374
0.114782861336
0.668015496031
203.820574686
223.518476333
238.005385358
240.23908523
224.516378041
185.95845243
120.378405239
47.2119492373
7.24913716735
1.02025331987
0.230217890926
0.0838288210274
0.049123867168
0.0401147096713
0.0377492418701
0.0375146583543
0.0391638466671
0.0493943333813
0.116915834582
0.683116033083
178.918410777
196.234946646
210.144109714
214.635244888
204.652900062
175.664625198
122.842596695
57.2096964798
10.5582310957
1.46007677532
0.294476777668
0.0961033868045
0.0514358064667
0.0401394226396
0.0372020684243
0.0368449156543
0.0385736151621
0.0492353872678
0.119259715232
0.699239049265
157.414573345
172.493716821
185.517024129
191.41213028
185.722129989
164.317362975
122.467786868
64.5745534079
15.0760133432
2.16929310556
0.395671176638
0.114320804677
0.0548416140907
0.0403952439167
0.0367094330864
0.0361899795655
0.0379928023658
0.049106444308
0.121839311116
0.71636385432
138.794403217
151.818541245
163.77469594
170.432198933
167.904267541
152.510478844
120.137331985
70.1662538682
21.0730948911
3.23077356013
0.539302759045
0.139066489951
0.0594877347291
0.0409129412912
0.0362775630655
0.0355515156046
0.0374231979418
0.0490143309469
0.124683937342
0.734489493024
122.646459993
133.840991849
144.684502794
151.694827692
151.527679338
140.940040727
116.304700108
74.2651860971
27.923864869
4.80774276527
0.744607673123
0.171765926056
0.0655481530659
0.041721291419
0.035910559583
0.0349291727529
0.0368650971222
0.0489653429661
0.127824096578
0.753622824119
108.618372022
118.220783817
127.98510307
135.082233688
136.666006913
129.877399997
111.390081447
76.9356874806
34.8538893023
7.07872316958
1.05181862497
0.216963438828
0.073631585412
0.0429162224278
0.035626295461
0.0343263781781
0.0363195080846
0.0489652050125
0.131287876183
0.773758481057
96.4068251995
104.640228299
113.391032196
120.387592962
123.228051572
119.392515365
105.841310849
78.2565990991
41.142614367
10.107563753
1.52607139573
0.283906542993
0.0850562448153
0.0447047226849
0.0354633497072
0.0337524604672
0.0357898375884
0.0490208588444
0.135103105032
0.794877818507
85.7567525287
92.8196574214
100.634413309
107.397443478
111.100665599
109.543507981
100.014403818
78.462701678
46.0091450947
13.9424114482
2.26202281983
0.386727514194
0.101789584639
0.0473902220155
0.0354747566813
0.0332197043299
0.0352812541637
0.0491420725164
0.139303434234
0.816969238421
76.4571754718
82.5251394691
89.489982576
95.937189245
100.206773286
100.401353998
94.1433477289
77.7431765142
49.6901076224
18.4125007095
3.3581608418
0.541639681373
0.125931137908
0.0512975673987
0.0357149883721
0.0327392921477
0.0347988108329
0.0493410904378
0.143930769348
0.840041098172
68.3331682209
73.5636808913
79.774028467
85.8703601919
90.4967260057
92.0342390994
88.410665216
76.2951059754
52.4729984246
23.1873341137
4.93316457965
0.77349943385
0.160281820938
0.0568145958151
0.0362443839656
0.0323220255469
0.0343468370138
0.049630841874
0.149030169536
0.864105275836
61.2371638423
65.7703332706
71.3244489073
77.0666775224
81.9010966857
84.4564506609
82.9305355963
74.3284646722
54.5434015815
27.8565274578
7.09085663432
1.1243930454
0.209879921514
0.0645838395761
0.0371552777343
0.0319835097447
0.0339302714128
0.0500240654019
0.154642815006
0.889142421267
55.0437890162
59.0010871987
63.9919996826
69.3927680593
74.3256439947
77.6374745399
77.7696899931
72.0491382485
56.0321526684
32.1176954813
9.84765561158
1.65759291134
0.283652559454
0.0757275351894
0.0386022534098
0.0317490342677
0.0335563289272
0.0505344119126
0.160804610616
0.915084074519
49.6469307963
53.1312098896
57.6423495854
62.7216406779
67.6732194647
71.5389384714
72.9873963009
69.6475261888
57.0425673121
35.6835189976
13.12963938
2.46014010465
0.396335886213
0.0920616057551
0.0408258103589
0.0316558330148
0.0332351442138
0.051178175097
0.167550065764
0.941819556251
44.956985111
48.0539025056
52.1580224881
56.9398289917
61.8559675643
66.1249092389
68.624560681
67.2408369435
57.6206855347
38.6575066692
16.6901155468
3.62320200369
0.569966798328
0.116291347159
0.0441712042893
0.0317540966713
0.0329796157356
0.0519751252578
0.174916355124
0.969217566749
40.8977008665
43.6776651615
47.4372452534
51.9480428765
56.7959347239
61.3589461833
64.7026142386
64.9301156616
57.8523298617
41.1740496384
20.2942425023
5.21626196787
0.836811019699
0.152509388004
0.0491384098163
0.0321119452602
0.0328058089603
0.0529483778995
0.18294391168
0.997135170542
37.4025315387
39.9226563212
43.3909418323
47.6591601682
52.4244069627
57.2086386291
61.2448976393
62.8213264278
57.8631228506
43.3332333156
23.6931287346
7.26720201449
1.24442233852
0.207349032641
0.0565010742656
0.0328280184475
0.0327347441661
0.054125041441
0.191678723932
1.02542770725
34.4112739537
36.7178331905
39.9410193192
43.9981001138
48.6837397193
53.6494415736
58.2748705684
60.9959320131
57.7724283183
45.1674897412
26.6771108004
9.71912034048
1.85643458964
0.291587899809
0.0674807086138
0.0340493085254
0.0327948619763
0.0555377359668
0.201177179476
1.05396025571
31.867970305
33.9994518695
37.0194663693
40.9006942045
45.5237505791
50.652751657
55.7827621879
59.4416787605
57.6358522898
46.68721499
29.2871850802
12.3948929464
2.73896263921
0.422212259647
0.0840375423504
0.0360010168251
0.0330255709702
0.0572277738406
0.211518975455
1.08264105553
29.7207401159
31.7105446511
34.5667691963
38.3099381355
42.8950090862
48.1785770907
53.735700233
58.1363307732
57.4830018997
47.9490752399
31.6189293044
15.094361618
3.95127224839
0.62660017512
0.109517956719
0.0390512780763
0.0334842850384
0.0592486271109
0.222816399805
1.11144301599
27.9237811316
29.8023402269
32.5327743921
36.1773049208
40.7540444807
46.1927772113
52.1197668586
57.1154810784
57.36929785
49.0296728782
33.7415992733
17.5933948109
5.5255992624
0.945933584358
0.149488080959
0.0437914644612
0.0342553013089
0.0616727167182
0.235230697142
1.14044129486
26.4409364855
28.237584816
30.8804767522
34.4687172102
39.0741230718
44.6838439852
50.9517873094
56.4275406692
57.3469960403
49.969240377
35.6429946148
19.8698152729
7.37459948259
1.42736428135
0.212509010486
0.0511367505141
0.035460755843
0.0645956226387
0.24896508468
1.16978996929
25.2506004765
26.9958783253
29.5928602316
33.174676079
37.8604071746
43.6821659498
50.2925841667
56.1043350574
57.4155706847
50.7470923362
37.2844633685
21.9445541424
9.34445226033
2.12727399096
0.312617930939
0.06260626144
0.0372906944268
0.0681485096779
0.264274093639
1.19969386195
24.3493341444
26.0764143023
28.6736158063
32.3052477264
37.1284665879
43.196050512
50.1045779742
56.089279541
57.5392372823
51.3560514824
38.6654053068
23.8381979087
11.2377861345
3.0962273248
0.472273209918
0.0807669513532
0.0400570312375
0.0725154905637
0.281436669308
1.23026305386
23.7527797924
25.4972161689
28.1439442826
31.8844654403
36.901007966
43.2323635986
50.3347771061
56.3074444262
57.669317948
51.7952052415
39.791138728
25.5242722103
12.9898383324
4.30470851008
0.719786148154
0.109724163652
0.0442919175909
0.0779639644203
0.300729271141
1.26142280125
23.5002460571
25.3005699341
28.0497738381
31.9603456982
37.2192396434
43.7977507344
50.9639008846
56.6952934632
57.7485667507
52.0364397788
40.6466297349
26.9702361559
14.5991970384
5.64595760159
1.10773421533
0.157184333906
0.0509912779596
0.0848746302773
0.322338333256
1.29278539683
23.6790812092
25.5821666311
28.4946764595
32.6338301929
38.1443187958
44.8521994102
51.8310867913
56.9737582371
57.4384632387
51.7522371055
40.970879504
28.0047200111
15.9986820791
6.98447307164
1.67796887551
0.236044460621
0.0620144641009
0.0938279113564
0.346417040453
1.32387286314
24.5185860561
26.5279653475
29.5753380612
33.8303678248
39.324701738
45.7181522612
51.9919606323
56.2528978221
56.3282381343
51.1233403382
41.375548962
29.3553309309
17.7583786794
8.58050117487
2.54377347821
0.37413791662
0.079772752061
0.105533492216
0.372581226753
1.35334850405
0.561991005021
1.29212572877
2.15079850277
1.84471632007
3.08377923002
2.37691404375
3.58946822129
2.53095772708
3.712740704
2.54062274851
3.60948125489
2.47999965255
3.41155458106
2.38188339463
3.18915651254
2.26487154483
2.97197642896
2.13983325681
2.77101987924
2.01331742423
2.58990293133
1.88939190418
2.42927127068
1.77063754591
2.28846739788
1.65872243368
2.16628866742
1.55474311918
2.06137194873
1.45942413754
1.97236617846
1.37323346081
1.89798741979
1.29644942273
1.83701686044
1.22919979954
1.78827774067
1.17149952981
1.75035762972
1.12344227068
1.72199474902
1.08462488508
1.70224232209
1.05425931339
1.69020584508
1.03164695786
1.68499561131
1.01614090832
1.68566358235
1.00717065459
1.69065249325
1.00449808558
1.69875280004
1.00714134955
1.70890163238
1.01410263782
1.72021427037
1.02443068736
1.73200605028
1.03727218451
1.74379537012
1.05191284193
1.75529051561
1.0677981532
1.76635816044
1.08453745518
1.77698084215
1.10190019496
1.78722259916
1.11979499433
1.79720835774
1.13821767921
1.80709815649
1.15719472266
1.81704723372
1.17677170882
1.827176414
1.19704197339
1.83757550664
1.21814419569
1.84832425779
1.24019773358
1.85949789649
1.26324213947
1.87115417039
1.28725515372
1.88331561381
1.31221471801
1.89596131605
1.33809884733
1.90902026196
1.36479180435
1.92236774657
1.39198304955
1.93582824442
1.41915779298
1.94919547478
1.44568361675
1.96227348654
1.4709684462
1.97490779379
1.49461078582
1.98703981179
1.51658737513
1.99875428273
1.5373736132
2.01031251803
1.55805928983
2.02211091929
1.58030924537
2.03463903415
1.60625405625
2.04830601359
1.63818584254
2.06343942888
1.67807061833
2.08043102964
1.72725427247
2.09711099529
1.77956925462
)
;

boundaryField
{
    inletfuel
    {
        type            turbulentMixingLengthDissipationRateInlet;
        mixingLength    0.005;
        phi             phi;
        k               k;
        value           uniform 117.917647251;
    }
    inletair
    {
        type            turbulentMixingLengthDissipationRateInlet;
        mixingLength    0.005;
        phi             phi;
        k               k;
        value           uniform 0.0603738353925;
    }
    outlet
    {
        type            inletOutlet;
        inletValue      uniform 200;
        value           nonuniform List<scalar> 
26
(
22.8268650819
22.9534792689
23.2319570397
23.6255743989
24.5185860561
26.5279653475
29.5753380612
33.8303678248
39.324701738
45.7181522612
51.9919606323
56.2528978221
56.3282381343
51.1233403382
41.375548962
29.3553309309
17.7583786794
8.58050117487
2.54377347821
0.37413791662
0.079772752061
0.105533492216
0.372581226753
1.35334850405
2.09711099529
1.77956925462
)
;
    }
    axis
    {
        type            empty;
    }
    leftside
    {
        type            epsilonWallFunction;
        Cmu             0.09;
        kappa           0.41;
        E               9.8;
        value           nonuniform List<scalar> 
65
(
0.561991005021
1.29212572877
0.230509114536
0.241414006804
0.24913781398
1.29212572877
1.84471632007
2.37691404375
2.53095772708
2.54062274851
2.47999965255
2.38188339463
2.26487154483
2.13983325681
2.01331742423
1.88939190418
1.77063754591
1.65872243368
1.55474311918
1.45942413754
1.37323346081
1.29644942273
1.22919979954
1.17149952981
1.12344227068
1.08462488508
1.05425931339
1.03164695786
1.01614090832
1.00717065459
1.00449808558
1.00714134955
1.01410263782
1.02443068736
1.03727218451
1.05191284193
1.0677981532
1.08453745518
1.10190019496
1.11979499433
1.13821767921
1.15719472266
1.17677170882
1.19704197339
1.21814419569
1.24019773358
1.26324213947
1.28725515372
1.31221471801
1.33809884733
1.36479180435
1.39198304955
1.41915779298
1.44568361675
1.4709684462
1.49461078582
1.51658737513
1.5373736132
1.55805928983
1.58030924537
1.60625405625
1.63818584254
1.67807061833
1.72725427247
1.77956925462
)
;
    }
    burnerwall
    {
        type            epsilonWallFunction;
        Cmu             0.09;
        kappa           0.41;
        E               9.8;
        value           nonuniform List<scalar> 7(12411.2630512 18319.6403693 22629.2155146 0.755951872123 0.718924183376 0.886481783117 1404.89075229);
    }
    front
    {
        type            wedge;
    }
    back
    {
        type            wedge;
    }
}


// ************************************************************************* //
