/*--------------------------------*- C++ -*----------------------------------*\
  =========                 |
  \\      /  F ield         | OpenFOAM: The Open Source CFD Toolbox
   \\    /   O peration     | Website:  https://openfoam.org
    \\  /    A nd           | Version:  dev
     \\/     M anipulation  |
\*---------------------------------------------------------------------------*/
FoamFile
{
    version     2.0;
    format      ascii;
    class       volScalarField;
    location    "0.3";
    object      G;
}
// * * * * * * * * * * * * * * * * * * * * * * * * * * * * * * * * * * * * * //

dimensions      [1 0 -3 0 0 0 0];

internalField   nonuniform List<scalar> 
1629
(
24729.2726013
24729.2726013
24729.2726013
24729.2726038
24729.2726025
24729.2726004
24729.2728849
24729.2727339
24729.2724124
24729.2889887
24729.2824677
24729.2476831
24730.0844696
24730.093573
24730.0984238
24732.5535202
24732.6038476
24732.7485293
24736.9237072
24737.0051898
24737.2365017
24743.5551151
24743.6448687
24743.8923297
24755.0847571
24755.3061952
24755.9117435
24771.9805
24772.3074885
24773.1123938
24792.6700356
24792.9997734
24793.742019
24815.2712605
24815.5419449
24816.1183314
24838.8201773
24839.0269869
24839.4577026
24863.0324079
24863.17706
24863.4713588
24888.6675388
24888.7729804
24888.9851788
24916.3339682
24916.4213582
24916.5987843
24945.8937532
24945.9627959
24946.10674
24977.0839359
24977.1333448
24977.2315267
25010.6336043
25010.6600592
25010.7083453
25047.6848535
25047.7039044
25047.7379793
25088.4407324
25088.4597021
25088.4956788
25132.506531
25132.5209041
25132.5480327
25179.9595683
25179.9640672
25179.9701518
25231.5968805
25231.5947212
25231.5867921
25288.037729
25288.0331951
25288.0206172
25349.4498484
25349.4430991
25349.4261071
25415.9849294
25415.9739473
25415.9480104
25488.121347
25488.1039376
25488.0641298
25566.7800188
25566.7588123
25566.7109076
25652.5215953
25652.4972041
25652.4424889
25745.8044565
25745.7762324
25745.7132426
25847.2138797
25847.1816778
25847.1100718
25957.3758462
25957.3399641
25957.2603859
26076.8461315
26076.8060045
26076.717192
26206.3176088
26206.2719057
26206.1709153
26346.8709637
26346.8195076
26346.7059278
26499.6931255
26499.6364503
26499.511451
26665.8390271
26665.7775289
26665.6419794
26846.2276692
26846.1609605
26846.0139958
27041.9211778
27041.8486304
27041.6888557
27254.2692648
27254.1906812
27254.0176617
27484.7543934
27484.6696912
27484.4832739
27734.956265
27734.8653122
27734.665139
28006.5715367
28006.4740284
28006.2594768
28301.5678226
28301.4634593
28301.2338485
28622.1282538
28622.0169475
28621.7721004
28970.6789483
28970.5606184
28970.3003513
29349.8419733
29349.7165704
29349.4407903
29762.5341069
29762.401472
29762.1098205
30211.9641718
30211.8242641
30211.5166694
30701.7904982
30701.6430977
30701.3190556
31236.2534919
31236.0983571
31235.7573465
31820.6638955
31820.5005806
31820.1416305
32461.9215434
32461.7494254
32461.3711529
33169.4100452
33169.227278
33168.8256018
33957.1287284
33956.9302203
33956.4939483
34849.2784056
34849.0523026
34848.5553847
35892.8900269
35892.6092127
35891.9920899
37188.9716672
37188.5742411
37187.7009482
38969.1252395
38968.4591905
38966.9958784
41805.7347917
41804.3835975
41801.4156384
47260.3582945
47257.0004154
47249.6247663
60223.1983071
60215.1371839
60197.3838012
24728.655584
24730.019018
24733.0823619
24737.7072775
24744.421433
24757.1214352
24774.4771744
24794.845579
24816.9106067
24840.028688
24863.8487339
24889.2501473
24916.8209671
24946.2899834
24977.3477206
25010.7554937
25047.769409
25088.5340596
25132.57649
25179.9702287
25231.5683575
25287.9968289
25349.3970668
25415.9071357
25488.004227
25566.6401301
25652.3625144
25745.6219171
25847.0068729
25957.1462042
26076.5902065
26206.0269258
26346.5443174
26499.3338567
26665.449616
26845.8056199
27041.4624808
27253.7726697
27484.2194698
27734.3819389
28005.9560505
28300.909214
28621.4260274
28969.9325779
29349.0512028
29761.6979083
30211.082354
30700.8616095
31235.2760484
31819.6351167
32460.8374458
33168.2588995
33955.8784463
34847.8543395
35891.1215537
37186.4692982
38964.9314565
41797.2325559
47239.2296174
60172.2419559
24680.0089825
24682.9111917
24684.9079791
24686.2855666
24687.1826426
24687.6631009
24687.7418603
24687.3962109
24686.5717245
24685.1853447
24683.1263744
24680.2556025
24676.4027029
24671.3619955
24664.8865284
24656.6801478
24646.3863063
24633.5695773
24617.6760069
24597.9251051
24696.6679963
24699.2792638
24700.9143988
24701.9885422
24702.6846696
24703.0613524
24703.1078609
24702.7734694
24701.9815698
24700.6346339
24698.6139693
24695.7767539
24691.9516028
24686.9331045
24680.4753719
24672.2843513
24662.008202
24649.2240804
24633.4137536
24613.867988
24709.76288
24711.189161
24711.9429977
24712.5344477
24713.0211065
24713.3412821
24713.4049163
24713.116657
24712.3776376
24711.0805508
24709.103156
24706.3019404
24702.5060353
24697.5109809
24691.072143
24682.897367
24672.6386388
24659.8836216
24644.1511203
24624.8813453
24724.1186952
24721.4673989
24720.8711928
24721.0513618
24721.4607497
24721.8206093
24721.9569668
24721.7428544
24721.0692234
24719.8268217
24717.8941372
24715.1290762
24711.3622228
24706.3903723
24699.9701732
24691.8111345
24681.5681862
24668.8367315
24653.1657777
24634.2354917
24729.4599777
24728.9108526
24729.0793852
24729.6740374
24730.3902252
24730.9866403
24731.2993302
24731.2149263
24730.6379962
24729.4695076
24727.5945934
24724.8752967
24721.144874
24716.2019982
24709.8048388
24701.6644801
24691.4383281
24678.7278776
24663.0973366
24644.2123258
24733.8993242
24735.145094
24736.7264703
24738.3168398
24739.7349564
24740.7801824
24741.3707164
24741.4646178
24741.0101042
24739.9313326
24738.1253219
24735.4603382
24731.7731104
24726.8646165
24720.4947555
24712.3761264
24702.1679225
24689.4736155
24673.8547274
24654.898284
24738.8775415
24741.5487289
24744.5181821
24747.3422623
24749.8018376
24751.4142801
24752.3119672
24752.5948097
24752.2713194
24751.2908184
24749.5617097
24746.9580898
24743.3200783
24738.4509262
24732.1121841
24724.0176832
24713.8274699
24701.1441075
24685.5176763
24666.4567744
24746.0739282
24750.8804994
24754.5379396
24758.7208419
24761.543605
24763.2734345
24764.306345
24764.7222377
24764.5157405
24763.6337272
24761.9861104
24759.4493657
24755.8658118
24751.0405555
24744.7365267
24736.6683662
24726.4961253
24713.8195471
24698.174698
24679.0128006
24760.347752
24765.8516937
24770.1533379
24773.0711515
24774.963154
24776.422978
24777.4439127
24777.9410108
24777.836486
24777.0511672
24775.4877831
24773.022059
24769.497368
24764.7201162
24758.4542446
24750.4148831
24740.2615228
24727.5899742
24711.9215251
24692.6747064
24777.6363989
24782.1364719
24785.701065
24787.7678771
24789.2220411
24790.6217851
24791.7135822
24792.3187189
24792.3244133
24791.6393392
24790.1632314
24787.7719308
24784.3097869
24779.584137
24773.3595335
24765.3511176
24755.2170961
24742.5494408
24726.8594448
24707.5462159
24797.1743237
24800.2032747
24802.5779785
24803.0129007
24804.1738099
24805.8369126
24807.1732683
24807.9479192
24808.0820842
24807.5026403
24806.1165092
24803.802384
24800.4059275
24795.7351889
24789.5549759
24781.5799893
24771.4668776
24758.8040796
24743.0957107
24723.7322138
24818.525505
24820.7495014
24822.5759567
24820.7179441
24821.0221136
24822.6488008
24824.0966203
24824.9904125
24825.2364987
24824.7578861
24823.4612725
24821.2258275
24817.8975879
24813.2848153
24807.1521247
24799.2133061
24789.123302
24776.4675609
24760.7453722
24741.344488
24841.1957011
24843.0035966
24844.3653886
24842.0169944
24840.7795083
24841.4966936
24842.7101715
24843.6005137
24843.9178593
24843.5278709
24842.3179945
24840.1620631
24836.9046652
24832.3532862
24826.271661
24818.3723388
24808.3083864
24795.6625209
24779.9316193
24760.5033756
24864.6039632
24865.6989576
24866.2816019
24864.150349
24862.0293415
24861.9850571
24862.9631096
24863.8577995
24864.2452219
24863.9414723
24862.8175234
24860.7422459
24857.5584493
24853.072138
24847.045437
24839.1893541
24829.1551519
24816.5232209
24800.7883613
24781.3396953
24889.7671507
24890.4376942
24890.6435459
24889.2654158
24885.3007639
24884.2351289
24884.9689455
24885.8976559
24886.3607649
24886.1412876
24885.1025227
24883.1095927
24880.0026536
24875.5853519
24869.6176648
24861.8086814
24851.8077981
24839.193497
24823.4591675
24803.9952521
24917.2548639
24917.812662
24917.9851989
24917.6202738
24912.2427086
24909.2423721
24909.2419355
24909.9946686
24910.4495882
24910.2850184
24909.3249881
24907.4165425
24904.3912296
24900.0481202
24894.1443101
24886.3867593
24876.4230753
24863.8301547
24848.100295
24828.6247647
24946.6495133
24947.1200082
24947.3257743
24947.1263734
24941.8385454
24937.0763344
24935.989879
24936.3106237
24936.6600262
24936.5234703
24935.6423449
24933.826226
24930.8909821
24926.6292721
24920.7952097
24913.093909
24903.1714736
24890.6035336
24874.8814525
24855.3967736
24977.5584693
24977.7414941
24977.6426612
24977.1765875
24972.4867377
24966.6395085
24964.7802675
24964.7561776
24965.0582961
24964.9914971
24964.218606
24962.5149577
24959.6834248
24955.5125472
24949.7550677
24942.1152457
24932.2382265
24919.6985767
24903.9869144
24884.4947141
25010.8148793
25010.6967078
25010.2172108
25009.3362069
25005.0521399
24998.2144816
24995.5742324
24995.3596493
24995.7684391
24995.8635406
24995.2477722
24993.6830116
24990.9704452
24986.9000392
24981.2258275
24973.6524656
24963.8247492
24951.3164797
24935.617471
24916.1185786
25047.8032997
25047.6827026
25047.2663021
25046.4822126
25043.3194845
25034.0641118
25029.4919138
25028.7050824
25029.1629789
25029.4254537
25028.9777451
25027.5619209
25024.9767556
25021.0136254
25015.4280948
25007.9254911
24998.1504732
24985.6761689
24969.991447
24950.4860173
25088.5929145
25088.5722185
25088.3415034
25087.7571208
25085.7764475
25076.295885
25068.191515
25065.8099906
25065.8244482
25066.0555111
25065.7016991
25064.4119042
25061.950154
25058.096205
25052.6025622
25045.1738244
25035.45413
25023.01574
25007.3462754
24987.8337782
25132.6182184
25132.5825944
25132.3352472
25131.679177
25129.9768934
25121.5060628
25111.0127671
25106.8305899
25106.0150128
25106.0256297
25105.6900812
25104.5007198
25102.1561728
25098.4114844
25093.0114654
25085.6585707
25075.9959387
25063.5946869
25047.9408363
25028.4203464
25179.9502996
25179.7863652
25179.3390763
25178.3822051
25176.5161699
25169.0330574
25156.9051978
25151.1995592
25149.6381194
25149.4753068
25149.182183
25148.1024023
25145.878559
25142.2447977
25136.9396301
25129.6637728
25120.0592788
25107.6958272
25092.0574831
25072.527638
25231.5091527
25231.2694149
25230.7182754
25229.6395819
25227.7611125
25221.8190953
25207.7133638
25199.6810837
25197.1259631
25196.7591505
25196.5121919
25195.5405447
25193.4340664
25189.9088398
25184.6974921
25177.4985853
25167.9524892
25155.6268903
25140.0034477
25120.4629274
25287.9281542
25287.6809711
25287.1378258
25286.1040812
25284.3565185
25279.9519035
25266.185231
25254.1991493
25249.6256955
25248.5634948
25248.1537567
25247.2007174
25245.1748236
25241.744252
25236.6221609
25229.4991243
25220.0113621
25207.7234149
25192.1139816
25172.5603933
25349.3187125
25349.061611
25348.5200943
25347.5075186
25345.7754587
25342.1250586
25329.661864
25314.4513039
25307.5163868
25305.3164993
25304.4987806
25303.4533566
25301.4641032
25298.1137679
25293.0774658
25286.0300409
25276.6007478
25264.3500226
25248.7531404
25229.1834052
25415.8038056
25415.50075
25414.9025479
25413.8172491
25411.9489742
25408.5495039
25397.2133813
25379.4392598
25370.3401787
25367.0015166
25365.754009
25364.6127534
25362.6651172
25359.4020879
25354.4570829
25347.4882648
25338.1182745
25325.9039084
25310.3175747
25290.7283862
25487.8590203
25487.468114
25486.7400035
25485.4605005
25483.2886031
25479.6925907
25469.2810761
25449.6646072
25438.2428083
25433.7783364
25432.1989886
25431.0437041
25429.185232
25426.0345554
25421.1930248
25414.3077734
25404.9980485
25392.8192463
25377.2405275
25357.6275124
25566.4715657
25566.0353678
25565.2465991
25563.8886355
25561.6331089
25558.1033483
25549.3976614
25527.9628594
25512.9230067
25506.6548137
25504.5349488
25503.3208511
25501.543732
25498.5055056
25493.7684106
25486.9666151
25477.71591
25465.5696543
25449.9942464
25430.3520905
25652.1740703
25651.6985966
25650.8571324
25649.4359405
25647.1282464
25643.6190381
25636.6435264
25617.0235949
25596.6606434
25587.1691592
25583.7800662
25582.1869691
25580.3543228
25577.3716664
25572.7158953
25565.9872663
25556.7893849
25544.6702996
25529.0930981
25509.4163971
25745.4085361
25744.8816141
25743.9694436
25742.4620001
25740.0640355
25736.4462395
25730.2132951
25712.7036513
25688.4926888
25675.582253
25670.473155
25668.2208373
25666.1957527
25663.206112
25658.6040045
25651.9350844
25642.7817658
25630.6832133
25615.0978508
25595.380222
25846.767307
25846.1860975
25845.1995905
25843.5997995
25841.0900516
25837.2885657
25831.3478088
25815.4203168
25788.1282477
25771.7526726
25764.8159434
25761.8472142
25759.6061983
25756.5961152
25752.0384655
25745.4214757
25736.3049626
25724.2192893
25708.6181498
25688.8515508
25956.8824418
25956.2513441
25955.197321
25953.5134235
25950.8981971
25946.9394035
25941.0534905
25926.8040393
25897.3250329
25876.7713132
25867.5778714
25863.7556283
25861.2620987
25858.2155494
25853.6912327
25847.1165262
25838.0270469
25825.9449068
25810.3190438
25790.494359
26076.298035
26075.607157
26074.4697797
26072.6780916
26069.9273683
26065.8008644
26059.8749918
26047.3300588
26018.7706729
25992.8192216
25980.2702446
25975.0434034
25972.0534249
25968.8587993
25964.3145021
25957.7545915
25948.6759215
25936.5853641
25920.9242002
25901.0309826
26205.6967172
26204.9236578
26203.6675681
26201.7169651
26198.7648657
26194.4017802
26188.3527883
26177.1687634
26150.9330969
26120.2144354
26103.7494722
26096.6086361
26092.831738
26089.3420077
26084.7061933
26078.1265938
26069.040315
26056.9288867
26041.2217184
26021.2496778
26346.1746008
26345.3158737
26343.9358972
26341.82116
26338.6673378
26334.0781973
26327.7985093
26317.6450922
26293.6702979
26258.9572458
26238.336651
26229.0235992
26224.3098389
26220.4510511
26215.6896655
26209.0748584
26199.9721685
26187.832303
26172.0711095
26152.0113288
26498.9283023
26497.9918407
26496.5002056
26494.2397743
26490.9106447
26486.1245582
26479.5935383
26469.9365851
26447.820142
26409.9265699
26384.7497075
26373.0001778
26367.2765646
26363.0439284
26358.1622634
26351.5178617
26342.4005924
26330.2296028
26314.408187
26294.2519747
26665.0109459
26664.0025543
26662.4081754
26660.0148412
26656.526466
26651.5579388
26644.787305
26635.2934331
26614.8844631
26575.1040912
26544.6366178
26529.8371097
26522.8680834
26518.1892608
26513.1664392
26506.4865413
26497.3517211
26485.1449562
26469.2557233
26448.9921861
26845.3309743
26844.2440739
26842.5366262
26839.9948163
26836.3234793
26831.1370037
26824.0893093
26814.5466748
26795.7218068
26756.6839632
26720.1637519
26701.2848091
26692.5340641
26687.1708592
26681.8989659
26675.1341084
26665.9580845
26653.7013858
26637.7322534
26617.3481864
27040.9473184
27039.7716139
27037.9349047
27035.2205088
27031.3315081
27025.8799769
27018.5011594
27008.7669144
26991.1348336
26954.3103037
26912.2920244
26888.6476856
26877.5989533
26871.2784791
26865.6194539
26858.7005931
26849.4488929
26837.122497
26821.0583267
26800.5396845
27253.2155752
27251.9476688
27249.9760883
27247.0805
27242.9618098
27237.2313663
27229.5143271
27219.5097442
27202.7945804
27168.3478966
27121.8274391
27092.9639364
27079.2294315
27071.7550662
27065.6144813
27058.4957709
27049.1463165
27036.7372696
27020.5665155
26999.8996246
27483.6200267
27482.2584567
27480.1492865
27477.0679865
27472.7133472
27466.6982394
27458.647184
27448.3382855
27432.2647364
27399.9561617
27350.1310368
27315.5845932
27298.7483255
27289.955881
27283.2787807
27275.9425269
27266.4911288
27253.9974756
27237.7149936
27216.8893413
27733.7386753
27732.2802701
27730.0281131
27726.7530821
27722.1523537
27715.8431608
27707.4586039
27696.8417212
27681.163176
27650.7501038
27599.0558073
27558.3754917
27537.8554769
27527.5072756
27520.2182549
27512.6421797
27503.0848523
27490.5061873
27474.1079813
27453.1129064
28005.2671644
28003.7075109
28001.3057667
27997.828026
27992.9704659
27986.357047
27977.6354426
27966.6962915
27951.1970351
27922.4660838
27870.7528548
27823.6603873
27798.6471907
27786.3418336
27778.2822445
27770.4016198
27760.7128404
27748.0380735
27731.5138088
27710.3347802
28300.1724549
28298.5067455
28295.9483749
28292.258776
28287.1338745
28280.2058188
28271.137786
28259.8357668
28244.3356375
28216.9313608
28166.7180283
28113.6090945
28083.2957727
28068.5395225
28059.4904325
28051.2047049
28041.3374926
28028.544065
28011.8783973
27990.4974547
28620.6409097
28618.8680022
28616.1514267
28612.2480233
28606.8536248
28599.6084468
28590.1887262
28578.4937948
28562.832308
28536.3606942
28488.1629404
28430.1334679
28393.9040555
28376.2199823
28365.9711465
28357.1865512
28347.096656
28334.1627339
28317.339961
28295.739118
28969.0985146
28967.2172849
28964.3410514
28960.222211
28954.5566647
28946.9924278
28937.2166384
28925.1117854
28909.1753326
28883.3048899
28837.0646792
28775.4735314
28732.8134653
28711.6895354
28700.0346147
28690.6744985
28680.3317075
28667.2457746
28650.2571676
28628.4212888
29348.1679619
29346.1777869
29343.1409393
29338.8051566
29332.8660179
29324.9784038
29314.8380228
29302.3071121
29286.0069014
29260.4501934
29215.9338017
29152.2198342
29102.7707565
29077.5926976
29064.2840661
29054.268453
29043.6462871
29030.4013552
29013.2421144
28991.1581594
29760.7643363
29758.6628166
29755.461951
29750.9048449
29744.6868071
29736.4692039
29725.9550515
29712.9854142
29696.2470966
29670.7405303
29627.6225819
29563.1892195
29506.9178543
29476.9555201
29461.6650312
29450.888346
29439.9522538
29426.5386679
29409.2023436
29386.8538942
30210.098315
30207.885111
30204.5199
30199.7412105
30193.2440276
30184.6956003
30173.8051124
30160.3920359
30143.1670116
30117.5234993
30075.4626318
30011.360763
29948.730093
29913.1891877
29895.4935378
29883.8123267
29872.5105739
29858.9087418
29841.3829152
29818.7504954
30699.8254449
30697.4972285
30693.9630082
30688.9567508
30682.172936
30673.2837632
30662.0027678
30648.1248546
30630.3504095
30604.3940528
30563.0567026
30499.9277609
30431.9285232
30390.0475996
30369.4387909
30356.680391
30344.9525678
30331.1376907
30313.4058608
30290.4661432
31234.1861477
31231.7392687
31228.030546
31222.7887658
31215.7067623
31206.4587517
31194.759787
31180.3748071
31161.9814358
31135.5349923
31094.5480417
31032.6178467
30960.609699
30911.747576
30887.6135298
30873.5636413
30861.3381458
30847.2808647
30829.3247195
30806.0516043
31818.4884023
31815.9158063
31812.0215818
31806.5278482
31799.1235255
31789.4832529
31777.3173565
31762.3369072
31743.2173504
31716.1063518
31675.0719227
31614.1536132
31539.4764674
31483.1515896
31454.7131213
31439.0764314
31426.253012
31411.9045415
31393.6888606
31370.0447357
32459.62937
32456.9204107
32452.8234727
32447.0514751
32439.2861279
32429.1972908
32416.4827921
32400.7676512
32380.6988155
32352.6421834
32311.0979948
32250.6437536
32174.1148438
32109.9689009
32076.1611137
32058.4743008
32044.8784577
32030.1407387
32011.5908698
31987.5084095
33166.9762236
33164.1007325
33159.7541612
33153.6357038
33145.4148632
33134.7514377
33121.3241149
33104.6585517
33083.2974948
33053.8025497
33011.0297462
32950.0328865
32871.5717688
32799.1278172
32758.3677672
32737.821963
32723.1004724
32707.7507475
32688.6962186
32664.0442163
33954.4853575
33951.3626833
33946.6470298
33940.0121678
33931.106625
33919.5726474
33905.0616111
33886.9846307
33863.7227289
33831.922358
33786.6751486
33723.3279751
33641.4304689
33559.4401697
33509.1127631
33484.1663213
33467.5534207
33451.084885
33431.1457662
33405.656271
34846.2677015
34842.7118591
34837.3411763
34829.7935194
34819.6809605
34806.6138759
34790.1990925
34769.6916766
34743.2293796
34707.3413557
34657.1067489
34587.8690781
34498.3956678
34403.0542542
34338.2172775
34305.7487372
34285.5694561
34266.8472893
34245.1747192
34218.2767757
35889.1515823
35884.7387804
35878.0802441
35868.7382592
35856.2532538
35840.1710903
35820.008297
35794.7957311
35762.2014324
35718.2495423
35657.5132267
35574.8038757
35468.1366374
35349.2212614
35259.1838504
35212.3561254
35184.8291945
35161.3134173
35136.0366797
35106.5076763
37183.6828495
37177.4467575
37168.0520814
37154.9037521
37137.3900944
37114.9035375
37086.6856064
37051.3240175
37005.6282247
36944.2675167
36860.3030421
36747.0066874
36601.2048266
36433.6440246
36293.4518252
36216.1390147
36172.3710216
36138.261473
36105.2068008
36070.3785015
38960.2609939
38949.8278813
38934.1471577
38912.2714787
38883.2479877
38846.1142555
38799.5130465
38740.7778663
38664.7540401
38563.0987223
38425.3625148
38241.3562308
38005.7141231
37730.3465378
37480.364388
37332.7750787
37251.344926
37193.349105
37143.2863358
37097.4004376
41787.7765803
41766.6734309
41735.0280386
41691.0240439
41632.8460642
41558.5008116
41465.1104489
41347.0815822
41194.3800851
40992.1026761
40722.5078989
40368.7718352
39922.2501169
39400.2220886
38898.565224
38580.9952748
38410.3021249
38298.7724567
38212.2701998
38143.645643
47215.7316542
47163.2943089
47084.6656719
46975.3107953
46830.5466429
46644.8790797
46410.2547407
46113.1057824
45732.119727
45239.878346
44607.7084562
43812.5756294
42848.7161888
41753.2398713
40679.7838072
39957.9920943
39583.6034266
39360.556376
39203.5200965
39093.0266551
60115.0724749
59984.8916807
59782.9453637
59487.6231154
59069.5581206
58489.3626091
57697.6286071
56644.2583056
55295.4814548
53648.0834581
51729.8013004
49588.2312454
47286.4160539
44925.1516916
42732.6661891
41232.6564889
40499.6554902
40108.0188279
39856.1492457
39693.1263664
24623.0427384
24618.4330183
24631.8248061
24627.0540889
24641.8972306
24637.0150878
24653.1373514
24648.1923907
24665.5265748
24660.5475013
24679.0989019
24674.1007858
24693.9197011
24688.9102007
24710.0745369
24705.057331
24727.6653719
24722.6421896
24746.8075783
24741.7791697
24767.6293789
24762.5959984
24790.2713178
24785.2329338
24814.8873278
24809.843754
24841.6455396
24836.5964729
24870.7290844
24865.6741582
24902.3376496
24897.2764189
24936.6886842
24931.6206606
24974.0179751
24968.94242
25014.5848406
25009.5012073
25058.6708338
25053.5784317
25106.5828055
25101.4808346
25158.6547795
25153.5424015
25215.2496818
25210.1258481
25276.7634169
25271.6270486
25343.6281393
25338.4781156
25416.31494
25411.1500075
25495.3381408
25490.1570059
25581.2567196
25576.0577844
25674.6779279
25669.4593925
25776.2644786
25771.0243528
25886.7388632
25881.4752832
26006.8901891
26001.6010543
26137.5779909
26132.2609392
26279.7384133
26274.3909615
26434.3902054
26429.0095046
26602.6489411
26597.2319312
26785.7349194
26780.27843
26984.9798142
26979.4803045
27201.844529
27196.2982943
27437.9321426
27432.3350139
27695.0064143
27689.3539059
27975.0081935
27969.2953065
28280.0748256
28274.2963861
28612.5670267
28606.7172048
28975.0978559
28969.1703219
29370.5698972
29364.5578067
29802.2236946
29796.1194826
30273.6749259
30267.4703226
30788.971166
30782.6568362
31352.6480498
31346.2136703
31969.7586511
31963.1913028
32645.8906595
32639.1745199
33387.0230464
33380.1374597
34199.0283913
34191.94099
35086.3901269
35079.0469144
36048.8799117
36041.18122
37073.464382
37065.2150154
38115.2046016
38106.0355452
39056.8254541
39046.1714292
39647.6445828
39635.2761619
)
;

boundaryField
{
    inletfuel
    {
        type            MarshakRadiation;
        refValue        uniform 1837.21237281;
        refGradient     uniform 0;
        valueFraction   nonuniform List<scalar> 3(1.30289334835e-12 1.34379470386e-12 1.22926628721e-12);
        emissivityMode  lookup;
        emissivity      uniform 1;
        value           uniform 24729.2726013;
    }
    inletair
    {
        type            MarshakRadiation;
        refValue        uniform 1837.21237281;
        refGradient     uniform 0;
        valueFraction   nonuniform List<scalar> 
20
(
0.000368901060005
0.000368900787609
0.000368900831384
0.000368900895199
0.000368900944116
0.000368900977558
0.00036890099648
0.000368901001311
0.000368900993206
0.000368900973759
0.00036890094453
0.000368900906589
0.000368900860165
0.000368900804316
0.000368900736441
0.000368900651615
0.000368900540839
0.000368900392822
0.00036890016583
0.000368900119673
)
;
        emissivityMode  lookup;
        emissivity      uniform 1;
        value           nonuniform List<scalar> 
20
(
24671.5822506
24674.4833954
24676.4794452
24677.8565231
24678.753267
24679.2335473
24679.3122772
24678.9667552
24678.1425731
24676.7567053
24674.6984952
24671.8287832
24667.9773059
24662.9384593
24656.4653826
24648.2620313
24637.9719897
24625.1599921
24609.2722901
24589.5286755
)
;
    }
    outlet
    {
        type            MarshakRadiation;
        refValue        nonuniform List<scalar> 
26
(
3776221.64523
3788807.94424
3816524.81935
3855723.65121
3945117.28079
4146433.64125
4446859.14847
4833150.93503
5227868.53784
5411557.90294
5054526.30856
4058005.45371
2734885.81062
1544386.71171
737349.028978
300000.92335
104362.533073
31017.7795998
8106.59305398
2786.90442343
1985.25417724
1870.45406358
1841.62004079
1823.3715635
1808.65544825
1802.28935344
)
;
        refGradient     uniform 0;
        valueFraction   nonuniform List<scalar> 
26
(
0.00447981622709
0.00447300646608
0.00445811217957
0.00443727892462
0.00439081004304
0.00429083091877
0.00415220263372
0.00398817072503
0.00382466997853
0.00370871165917
0.00371268997516
0.00389208723933
0.00427120520118
0.00485121207623
0.00561739361612
0.00652658429676
0.00745536448996
0.00809360068638
0.00760073223206
0.00469467772437
0.00238260089166
0.00177502138965
0.00163032536799
0.00159864047219
0.00159442327132
0.00159341955508
)
;
        emissivityMode  lookup;
        emissivity      uniform 1;
        value           nonuniform List<scalar> 
26
(
76870.1884494
76893.1569192
76943.5128921
77014.1622315
77173.3791884
77519.1523233
77998.9747286
78525.8073871
78838.5084033
78342.3503169
76249.3043547
72217.9051542
66740.5616058
60879.972694
55581.194373
51222.5707894
47711.9393099
44812.5909753
42469.482679
41052.1660731
40407.8910433
40040.1463325
39794.1731944
39632.5862437
39587.313218
39574.9923409
)
;
    }
    axis
    {
        type            empty;
    }
    leftside
    {
        type            MarshakRadiation;
        refValue        uniform 1837.21237281;
        refGradient     uniform 0;
        valueFraction   nonuniform List<scalar> 
65
(
0.000158788202042
0.00015878843895
0.000514193920644
0.00051419341339
0.000514192989904
0.000112011553608
0.000112011818671
0.000112012186674
0.000112012460237
0.000112012585411
0.000112012607
0.00011201258059
0.00011201253519
0.000112012481349
0.000112012423164
0.000112012362904
0.000112012301777
0.000112012240163
0.000112012177989
0.000112012115017
0.000112012050976
0.0001120119856
0.000112011918633
0.000112011849839
0.00011201177901
0.000112011705953
0.000112011630462
0.000112011552332
0.000112011471379
0.000112011387433
0.000112011300342
0.000112011209944
0.00011201111605
0.000112011018485
0.000112010917105
0.000112010811809
0.000112010702565
0.000112010589454
0.000112010472764
0.000112010353131
0.000112010231776
0.000112010110923
0.000112009994481
0.000112009889073
0.000112009805566
0.000112009761364
0.000112009783774
0.000112009914724
0.000112010217199
0.000112010783865
0.000112011748115
0.000112013297195
0.000112015686972
0.000112019258667
0.000112024459891
0.0001120318738
0.000112042266123
0.0001120566602
0.000112076483085
0.000112103778105
0.00011214135745
0.000112193462469
0.000112265692223
0.000112366417998
0.000112563462466
)
;
        emissivityMode  lookup;
        emissivity      uniform 1;
        value           nonuniform List<scalar> 
65
(
24619.4246174
24614.8156238
24586.221685
24602.1563817
24613.1640857
24615.8812584
24624.5013573
24634.461232
24645.6372767
24657.9910005
24671.5427664
24686.350523
24702.4958457
24720.0787358
24739.2135736
24760.028072
24782.6624732
24807.2705381
24834.0202618
24863.0946915
24894.6934139
24929.0338101
24966.3513905
25006.9056364
25050.9779252
25098.8749642
25150.9307013
25207.5078118
25269.0021253
25335.8457063
25408.5094601
25487.5076109
25573.3987699
25666.7899182
25768.3435046
25878.7820657
25998.8943841
26129.5396365
26271.6537415
26426.2549687
26594.4585557
26777.4845544
26976.6641192
27193.4578259
27429.4681092
27686.4582137
27966.3682575
28271.3351706
28603.7187467
28966.13125
29361.4744206
29792.9877133
30264.2856877
30779.414389
31342.9079404
31959.816233
32635.7233983
33376.6028649
34188.3147858
35075.3203792
36037.3455405
37061.2626638
38101.9638007
39041.9903917
39631.021481
)
;
    }
    burnerwall
    {
        type            MarshakRadiation;
        refValue        nonuniform List<scalar> 7(1837.23910189 1837.2780973 1837.29178019 1837.320926 1837.38897996 1837.41146475 1836.65964004);
        refGradient     uniform 0;
        valueFraction   nonuniform List<scalar> 7(1.45602981704e-13 6.29193086771e-11 1.53423339674e-08 0.000112453870767 0.000112452814226 0.000112370968134 9.43102418321e-05);
        emissivityMode  lookup;
        emissivity      uniform 1;
        value           nonuniform List<scalar> 7(24729.2726013 24729.272599 24729.2720612 24677.4402338 24694.097406 24707.1926918 24726.4966344);
    }
    front
    {
        type            wedge;
    }
    back
    {
        type            wedge;
    }
}


// ************************************************************************* //
