/*--------------------------------*- C++ -*----------------------------------*\
  =========                 |
  \\      /  F ield         | OpenFOAM: The Open Source CFD Toolbox
   \\    /   O peration     | Website:  https://openfoam.org
    \\  /    A nd           | Version:  dev
     \\/     M anipulation  |
\*---------------------------------------------------------------------------*/
FoamFile
{
    version     2.0;
    format      ascii;
    class       volScalarField;
    location    "0.3";
    object      H;
}
// * * * * * * * * * * * * * * * * * * * * * * * * * * * * * * * * * * * * * //

dimensions      [0 0 0 0 0 0 0];

internalField   nonuniform List<scalar> 
1629
(
2.32896184806e-24
2.21997292698e-24
1.83291285101e-24
3.20635974977e-22
4.3889672403e-22
7.76189076502e-22
2.39560585511e-20
4.99518332667e-20
1.88087925633e-19
1.35677664153e-18
4.18187236757e-18
3.27351866749e-17
7.35690112015e-17
2.61446674606e-16
1.68397431563e-15
4.29609483872e-15
1.84881186391e-14
1.12686951832e-13
1.88832220988e-13
9.48293899857e-13
1.12339776153e-11
1.2412035202e-11
1.07879739841e-10
1.56869611409e-09
1.9438504207e-11
1.06947356412e-10
9.26134410173e-10
2.02486240959e-11
6.9375057716e-11
3.68175214892e-10
1.72455046427e-11
3.84474564932e-11
1.28711349303e-10
1.49345021783e-11
3.08641034958e-11
1.28588309063e-10
2.98374857378e-11
1.03346086475e-10
6.75991055024e-10
4.91525151212e-11
1.62909289237e-10
9.08808091875e-10
6.68334029573e-11
2.01470344963e-10
9.84345239123e-10
6.58972110999e-11
1.71177000657e-10
6.89015293529e-10
5.74790462498e-11
1.3319343836e-10
4.71841296424e-10
5.24221659549e-11
1.13929179353e-10
3.80672651251e-10
5.24206049542e-11
1.08628015396e-10
3.4481970517e-10
5.91166284842e-11
1.18600287588e-10
3.62896960865e-10
6.88568700376e-11
1.31535251529e-10
3.76161280356e-10
7.96365759267e-11
1.43744962069e-10
3.80537405421e-10
9.14256403651e-11
1.55595858658e-10
3.79884862685e-10
1.07335973976e-10
1.72769025521e-10
3.89872391351e-10
1.33231597614e-10
2.03432342322e-10
4.24735747298e-10
1.75743396083e-10
2.53967530393e-10
4.87159225972e-10
2.43566493272e-10
3.33204236853e-10
5.86705947268e-10
3.43451106048e-10
4.4655562998e-10
7.25901589281e-10
4.67858644677e-10
5.79481180846e-10
8.70370388535e-10
5.97728443829e-10
7.09735728036e-10
9.93653135459e-10
7.15359335798e-10
8.22831413365e-10
1.09192034187e-09
8.1627749673e-10
9.20374341661e-10
1.18128550348e-09
9.14285952974e-10
1.02273845545e-09
1.29723612383e-09
1.03406436672e-09
1.15755184174e-09
1.47238448752e-09
1.18837202408e-09
1.33160942e-09
1.69500619617e-09
1.39066734199e-09
1.55526387342e-09
1.96804092687e-09
1.67569223741e-09
1.86684002417e-09
2.34076608721e-09
2.10418073039e-09
2.33323032227e-09
2.89558940478e-09
2.7600993715e-09
3.04367837533e-09
3.73412838964e-09
3.75042478675e-09
4.10976463888e-09
4.97829931553e-09
5.21642034854e-09
5.67834696762e-09
6.78755076008e-09
7.36685526905e-09
7.9669163158e-09
9.39961935461e-09
1.05417437239e-08
1.13289357538e-08
1.31977773741e-08
1.53267442978e-08
1.63717682967e-08
1.88382600893e-08
2.27488731176e-08
2.41599020176e-08
2.74708420478e-08
3.45418860269e-08
3.64812714772e-08
4.10051466236e-08
5.34851136937e-08
5.61818792951e-08
6.2434086309e-08
8.37860351502e-08
8.75394015921e-08
9.61865087767e-08
1.31384332026e-07
1.3655107234e-07
1.48379823803e-07
2.03907052198e-07
2.10867219961e-07
2.26708030079e-07
3.09959245043e-07
3.19066501617e-07
3.39686859814e-07
4.57736175172e-07
4.69287737755e-07
4.95335403396e-07
6.5395710747e-07
6.68259132606e-07
7.0042226611e-07
9.05241693273e-07
9.22806928614e-07
9.62260186331e-07
1.22278343618e-06
1.24447767268e-06
1.29317913701e-06
1.63045324945e-06
1.65756858807e-06
1.71839811151e-06
2.17322786291e-06
2.20753825306e-06
2.2844137852e-06
2.9287979167e-06
2.97296601677e-06
3.07178687652e-06
4.03728698421e-06
4.09659456571e-06
4.22921507033e-06
5.64750908699e-06
5.72594473557e-06
5.90098879969e-06
8.07031712949e-06
8.17823983258e-06
8.41901325098e-06
1.16460922839e-05
1.17949790057e-05
1.21271176873e-05
1.71345749923e-05
1.73659871507e-05
1.78842518395e-05
2.30293162191e-16
7.32504951323e-15
4.68455886683e-13
1.348129949e-10
2.43833450938e-08
8.60393237976e-09
2.18489390614e-09
5.09817507996e-10
8.41823371675e-10
5.09346883288e-09
5.52082442334e-09
5.20758587218e-09
2.92642372361e-09
1.80334750528e-09
1.40928851418e-09
1.21650550093e-09
1.23570473587e-09
1.18724287679e-09
1.10832362498e-09
1.01754468244e-09
9.62051177301e-10
9.65426460156e-10
1.0118188877e-09
1.1171768237e-09
1.28055073963e-09
1.42131564116e-09
1.51347938422e-09
1.57714653648e-09
1.65220088179e-09
1.79851956602e-09
2.05113578383e-09
2.35447126686e-09
2.70141576326e-09
3.16638432723e-09
3.8591929505e-09
4.9006160989e-09
6.42764458414e-09
8.61877025922e-09
1.17416855038e-08
1.62224767447e-08
2.27891935456e-08
3.27196495931e-08
4.81016700402e-08
7.21355667003e-08
1.09454360973e-07
1.66328731703e-07
2.50495286944e-07
3.70370002286e-07
5.33816220767e-07
7.47715540698e-07
1.02015067444e-06
1.3645713948e-06
1.80745236332e-06
2.39670214467e-06
3.215747784e-06
4.42222941507e-06
6.15481203896e-06
8.76800187331e-06
1.26085453324e-05
1.86408297633e-05
3.75287185428e-19
7.98206675361e-18
2.54318672584e-17
4.55074097819e-17
4.37226762759e-17
2.48198604765e-17
9.40909055415e-18
2.58187658706e-18
5.44679165796e-19
9.1402708717e-20
1.24245705864e-20
1.38542095844e-21
1.27977922413e-22
9.88020195503e-24
6.43378549493e-25
3.57276725318e-26
1.71764609528e-27
7.27626217371e-29
2.74546544048e-30
3.36859985663e-32
7.44974807748e-18
1.30023381782e-16
5.15717527898e-16
1.09470528112e-15
1.0217443247e-15
5.18004858732e-16
1.7097801985e-16
4.07554788472e-17
7.54205480842e-18
1.11972212247e-18
1.35823151707e-19
1.36420607158e-20
1.14686559181e-21
8.15025446339e-23
4.94843913598e-24
2.60045032184e-25
1.20499075269e-26
5.03117448569e-28
1.87005509277e-29
2.43066953274e-31
9.59569905666e-17
1.07189485723e-15
5.84202966777e-15
1.50698163159e-14
1.35256853043e-14
6.13468021673e-15
1.78559322586e-15
3.78162583004e-16
6.28998669255e-17
8.45629698713e-18
9.36524092868e-19
8.66296063075e-20
6.76782577593e-21
4.51176004515e-22
2.59591972986e-23
1.30793567745e-24
5.89297306255e-26
2.44492485963e-27
9.08554966346e-29
1.19194215773e-30
2.8482475393e-16
4.2858369431e-15
5.77761643924e-14
1.63269719966e-13
1.37697359068e-13
5.67999782744e-14
1.49967665103e-14
2.92287750015e-15
4.50737124137e-16
5.66267032106e-17
5.90776089416e-18
5.18777738184e-19
3.87553786665e-20
2.48786030097e-21
1.3880991697e-22
6.83467536027e-24
3.0379282218e-25
1.2610816879e-26
4.79425234347e-28
7.60008545946e-30
9.31671657045e-15
6.64544159402e-14
8.16168649138e-13
1.99159222742e-12
1.46800925041e-12
5.35178746258e-13
1.26108582958e-13
2.23358224768e-14
3.16008284808e-15
3.68935081814e-16
3.62220840695e-17
3.02748417404e-18
2.17418799255e-19
1.35342412269e-20
7.38023547346e-22
3.57849743442e-23
1.57923628352e-24
6.58267613803e-26
2.56602548545e-27
5.17658689734e-29
2.18104004278e-12
3.47534956372e-11
2.63515851198e-11
2.87633533938e-11
1.61954260148e-11
4.9743517409e-12
1.02536287778e-12
1.61323229824e-13
2.06868774145e-14
2.23314072982e-15
2.06311604237e-16
1.64648800393e-17
1.14253245751e-18
6.93910190812e-20
3.72142792845e-21
1.78702467311e-22
7.86152302964e-24
3.2907116411e-25
1.29632590129e-26
2.8912579269e-28
1.69798437701e-09
5.28258370585e-08
3.53316009518e-09
6.78082808352e-10
2.06996113661e-10
4.48709292635e-11
7.53566888597e-12
1.02732886397e-12
1.18685202975e-13
1.1891810278e-14
1.04302838867e-15
8.03570271436e-17
5.44916165172e-18
3.26324970701e-19
1.73710150698e-20
8.32131988748e-22
3.66508844808e-23
1.53887938157e-24
6.02615831558e-26
1.36876770092e-27
6.41448164542e-07
7.48966234798e-05
1.73420734864e-06
5.39620698096e-08
3.70319223378e-09
3.63422075028e-10
4.27606139568e-11
4.96420451361e-12
5.29211404143e-13
5.09351765301e-14
4.38641616971e-15
3.35887508488e-16
2.27976895377e-17
1.37207191082e-18
7.35741790781e-20
3.55383696071e-21
1.57705408136e-22
6.64427183272e-24
2.55887988348e-25
5.61762318406e-27
1.20592059595e-07
6.73894614562e-06
2.98295072196e-07
1.63051135628e-08
2.64973795873e-09
4.78413957397e-10
7.93659977235e-11
1.16274302763e-11
1.44795662381e-12
1.54551805907e-13
1.42965331378e-14
1.15343881556e-15
8.15048042711e-17
5.0672444433e-18
2.79097884101e-19
1.37783097189e-20
6.21092716611e-22
2.63234546184e-23
9.92242966183e-25
2.04176965725e-26
1.81167545181e-08
3.87968312178e-07
3.89112736701e-08
4.04919082981e-09
1.35284752193e-09
4.50348595268e-10
1.04504875213e-10
1.96379460487e-11
2.96604006792e-12
3.66549544269e-13
3.79024562325e-14
3.33203062719e-15
2.51841417913e-16
1.65194496147e-17
9.49744711704e-19
4.84844099274e-20
2.2370758711e-21
9.57034821122e-23
3.52703793059e-24
6.70623353369e-26
2.71199427548e-09
2.34154322301e-08
6.74949252423e-08
3.21733930484e-09
7.14752607135e-10
4.30520836486e-10
1.33599305446e-10
3.06378684322e-11
5.44882517481e-12
7.70000922379e-13
8.88647853419e-14
8.55168966156e-15
6.96562355642e-16
4.86084879966e-17
2.93993940733e-18
1.56214890538e-19
7.4129048842e-21
3.20936579227e-22
1.15700983101e-23
2.02326240846e-25
1.03734869607e-08
4.7778132053e-07
3.57696904325e-05
8.75189675264e-07
3.4576227399e-08
2.91591662433e-09
3.95668294139e-10
6.7438836701e-11
1.13007592251e-11
1.64355818423e-12
2.01029832128e-13
2.06486991223e-14
1.79190027061e-15
1.32475225215e-16
8.42476903715e-18
4.66451054902e-19
2.27996377597e-20
1.00018290025e-21
3.5307253088e-23
5.68135903038e-25
6.17870946458e-08
2.47654234712e-06
0.000220357578039
3.27066312319e-06
9.04245562102e-08
5.84882760876e-09
8.03903794437e-10
1.34322904448e-10
2.26308175991e-11
3.39878293155e-12
4.35858600705e-13
4.72684043676e-14
4.33715413327e-15
3.38219679026e-16
2.25711522673e-17
1.30150392943e-18
6.55544641315e-20
2.9165284921e-21
1.00975593731e-22
1.50125774655e-24
5.19931364094e-08
1.45842396688e-06
8.82185299385e-05
1.28928740458e-06
4.1040344893e-08
3.3599420402e-09
8.21689110814e-10
1.8207685235e-10
3.61655638461e-11
6.09304133979e-12
8.53363817755e-13
9.96001050909e-14
9.74848844959e-15
8.05303608838e-16
5.65316730695e-17
3.40077341094e-18
1.76809620907e-19
7.993452898e-21
2.72193916447e-22
3.76534036351e-24
4.27965289142e-08
1.01582897812e-06
4.5842624207e-05
6.79140442574e-07
2.22064580671e-08
1.87730289181e-09
6.80529380378e-10
2.03386281655e-10
4.89404278698e-11
9.52417145067e-12
1.49309537655e-12
1.90894134578e-13
2.01678966009e-14
1.77873720301e-15
1.32048585055e-16
8.31965228903e-18
4.47974485427e-19
2.06491588979e-20
6.94436493443e-22
9.01973713843e-24
1.82520985099e-08
2.69277515303e-07
5.61682176531e-06
1.80563861705e-05
4.18489050814e-07
1.51733601023e-08
1.38633685597e-09
2.80237083946e-10
6.64221872802e-11
1.40079663465e-11
2.41581321031e-12
3.3774474565e-13
3.86381966508e-14
3.65392629514e-15
2.88067706667e-16
1.90822713946e-17
1.06818687313e-18
5.04053026561e-20
1.68234978443e-21
2.07285975499e-23
1.05165623735e-08
1.58925342791e-07
3.9046592178e-06
0.00011777752373
1.77951321375e-06
4.57373871817e-08
2.66005385535e-09
4.20788732557e-10
9.1868075422e-11
1.99670771295e-11
3.70021002819e-12
5.60537079194e-13
6.92695269541e-14
7.0284209826e-15
5.89648891401e-16
4.11799445294e-17
2.40450132292e-18
1.16619932936e-19
3.88243500199e-21
4.58648493629e-23
8.14584885506e-09
1.2154662378e-07
2.64967891189e-06
0.000102405889168
1.36620328049e-06
3.25539132293e-08
1.87080554526e-09
4.28101252731e-10
1.09387130761e-10
2.61938609755e-11
5.30365344719e-12
8.74060823744e-13
1.16817398441e-13
1.27299833665e-14
1.13813858732e-15
8.39731046893e-17
5.12893934113e-18
2.56615594817e-19
8.56213228706e-21
9.80073114569e-23
6.63079025006e-09
8.81469287964e-08
1.57422118047e-06
6.63782261793e-05
9.57696440809e-07
2.11451440478e-08
1.21983273951e-09
3.66775128099e-10
1.1539699405e-10
3.1556404651e-11
7.10377356135e-12
1.28341454468e-12
1.86112193323e-13
2.18178830812e-14
2.081618476e-15
1.62530037166e-16
1.04089490501e-17
5.38979117322e-19
1.81021014675e-20
2.02807204932e-22
6.47928443808e-09
8.09486829287e-08
1.32760576484e-06
4.66020188016e-05
8.40164847109e-07
2.17805152432e-08
1.18271838896e-09
3.11159066713e-10
1.16457800507e-10
3.62236449306e-11
9.06326893348e-12
1.79552789458e-12
2.82520175989e-13
3.56277300209e-14
3.62848610696e-15
3.0008284879e-16
2.01863818167e-17
1.08461594458e-18
3.68066415926e-20
4.07396329056e-22
5.66312004381e-09
5.994627878e-08
7.92602469842e-07
1.98525411469e-05
2.84322907746e-05
6.85655968007e-07
2.40774726067e-08
1.56632902706e-09
2.31652766438e-10
5.16865874229e-11
1.22139441374e-11
2.50327497235e-12
4.1788944291e-13
5.61573582372e-14
6.08050011154e-15
5.31936237515e-16
3.76004888295e-17
2.09982269084e-18
7.2211820727e-20
7.96297066534e-22
4.81899914005e-09
4.38056390842e-08
5.00879978763e-07
1.00703293045e-05
0.000144288653605
2.44563970871e-06
6.2734098362e-08
2.80623363914e-09
3.89014637847e-10
7.72570975039e-11
1.7152373356e-11
3.5253627288e-12
6.10968875453e-13
8.64082825351e-14
9.88025538781e-15
9.11357545005e-16
6.76272272024e-17
3.92770962011e-18
1.37162605036e-19
1.51789370862e-21
4.00740076173e-09
3.08073675654e-08
3.03004288584e-07
4.88842344215e-06
9.70383595088e-05
1.68028119608e-06
4.23235141084e-08
2.14509235488e-09
4.02944534143e-10
9.47152012436e-11
2.24958187361e-11
4.82885030978e-12
8.74899284083e-13
1.29910564236e-13
1.56297493148e-14
1.51608495626e-15
1.17956155374e-16
7.12480321985e-18
2.53012161731e-19
2.82736636613e-21
3.43530001204e-09
2.27735803528e-08
2.01718009509e-07
2.80104379693e-06
6.1406228728e-05
1.25540908978e-06
3.46088363117e-08
1.77942492223e-09
3.55268426569e-10
1.01615269197e-10
2.71753635945e-11
6.30530960899e-12
1.21350614254e-12
1.90134969666e-13
2.40794181079e-14
2.45424580004e-15
2.0008585531e-16
1.25690272807e-17
4.54347046745e-19
5.15393159942e-21
3.12728908527e-09
1.84490967429e-08
1.52135020004e-07
1.88992110987e-06
4.33660702977e-05
1.07396715405e-05
2.65922542023e-07
9.42622079875e-09
7.27951067606e-10
1.37727467948e-10
3.41380593425e-11
8.13212615165e-12
1.64434664123e-12
2.71401821921e-13
3.61664984509e-14
3.87188783807e-15
3.30699545031e-16
2.16069130595e-17
7.95705382071e-19
9.20260182635e-21
2.94755123023e-09
1.55382541162e-08
1.1735801727e-07
1.28405523416e-06
2.59728558253e-05
4.70724741666e-05
9.28072726977e-07
2.58006144908e-08
1.24979255939e-09
1.95083734178e-10
4.41471486987e-11
1.04683642092e-11
2.19109399776e-12
3.78932805749e-13
5.30409957303e-14
5.96110947958e-15
5.33336186173e-16
3.62479640601e-17
1.36079497123e-18
1.61034255379e-20
2.96265917989e-09
1.45968271272e-08
1.05165649132e-07
1.06841058264e-06
1.80606628088e-05
0.000151500144931
2.65484206379e-06
5.70636477556e-08
2.06987136835e-09
2.7249214977e-10
5.72684260837e-11
1.34147585281e-11
2.87948523111e-12
5.19014683799e-13
7.61219267548e-14
8.97178480948e-15
8.40555503835e-16
5.94214936638e-17
2.27489604498e-18
2.76250370379e-20
3.15099940704e-09
1.49338140539e-08
1.03026142827e-07
9.68614983818e-07
1.39720007562e-05
0.00017654277586
3.56868311002e-06
7.34720816126e-08
2.62074968589e-09
3.33959115927e-10
7.08255674317e-11
1.68434869733e-11
3.72560437099e-12
6.990436029e-13
1.07218009701e-13
1.32330655568e-14
1.2971370186e-15
9.53307151023e-17
3.72165544122e-18
4.64763644443e-20
3.21398485688e-09
1.39495626065e-08
8.59112391882e-08
6.94350020007e-07
8.04094646117e-06
8.81509179629e-05
2.49038631468e-06
6.41816229691e-08
2.63965649157e-09
3.40492472899e-10
8.00462373882e-11
2.02757568416e-11
4.70920886819e-12
9.25063216314e-13
1.48466077884e-13
1.91710489912e-14
1.9640090414e-15
1.49919026066e-16
5.96523660461e-18
7.67215065302e-20
3.15626424851e-09
1.2461986598e-08
6.89324111351e-08
4.93758628275e-07
4.8925863512e-06
5.13026644118e-05
1.22938853546e-05
2.9134330597e-07
9.30160688009e-09
6.20890461579e-10
1.07975037143e-10
2.53658452013e-11
5.94793810333e-12
1.21045533982e-12
2.02613235539e-13
2.73258981997e-14
2.92202367267e-15
2.31399233e-16
9.37650808972e-18
1.24305907423e-19
3.08694199973e-09
1.12911962042e-08
5.74009582313e-08
3.7596129435e-07
3.32503700601e-06
3.54060874378e-05
4.06644518729e-05
8.42196575239e-07
2.17903754546e-08
9.15062461839e-10
1.41182614394e-10
3.16534477925e-11
7.45320454039e-12
1.56340604929e-12
2.72292517332e-13
3.83114043345e-14
4.27240894131e-15
3.50672340621e-16
1.44572979282e-17
1.97631919654e-19
3.11277030334e-09
1.08472066096e-08
5.19583705989e-08
3.19044284953e-07
2.59351197389e-06
2.75700213369e-05
0.000108366929753
2.21288546153e-06
4.80361525026e-08
1.65051505134e-09
2.00678843072e-10
4.07365355431e-11
9.38904369768e-12
2.00489209903e-12
3.61243371572e-13
5.28835521373e-14
6.14153277649e-15
5.21848321509e-16
2.18638225232e-17
3.08166605697e-19
3.36210854196e-09
1.15740048478e-08
5.39687219367e-08
3.21080616192e-07
2.49488636573e-06
2.54477558394e-05
0.000173594611352
4.27706999782e-06
9.6794842948e-08
3.2144761799e-09
3.16688585492e-10
5.64300558462e-11
1.22659560386e-11
2.60134216674e-12
4.78175335111e-13
7.22857872403e-14
8.70568611851e-15
7.63738272234e-16
3.24523055811e-17
4.71329096394e-19
3.85584274687e-09
1.31772563097e-08
5.95426847115e-08
3.38820377852e-07
2.46881302323e-06
2.32249453289e-05
0.000186741366536
9.36113684014e-06
2.18958784916e-07
6.83625677738e-09
5.27977176297e-10
8.28610823688e-11
1.67151812088e-11
3.45216437398e-12
6.37576881109e-13
9.8514937497e-14
1.222364439e-14
1.10232215441e-15
4.73593646825e-17
7.07934362141e-19
4.36961902914e-09
1.42340116248e-08
5.94675001721e-08
3.06524630181e-07
1.96334508184e-06
1.50923481968e-05
9.36727335387e-05
1.19841980284e-05
2.77839254117e-07
8.08746162503e-09
5.38487521477e-10
9.5541174602e-11
2.06738923465e-11
4.42206551408e-12
8.38109676411e-13
1.32987728897e-13
1.69832190361e-14
1.57011049647e-15
6.80217259596e-17
1.04529543051e-18
4.88415948695e-09
1.4932596197e-08
5.74516406326e-08
2.70453540236e-07
1.55551369368e-06
1.01530818387e-05
5.08074983915e-05
2.45258064367e-05
5.38651354535e-07
1.26843199725e-08
5.24907178943e-10
9.58148469075e-11
2.29475778485e-11
5.29752190948e-12
1.06008202755e-12
1.7536485693e-13
2.31927277669e-14
2.20083319784e-15
9.60446387207e-17
1.51657782502e-18
5.56769881859e-09
1.60683670091e-08
5.78900995722e-08
2.55040104703e-07
1.35906811577e-06
7.99706026973e-06
3.93363039028e-05
5.45798300856e-05
1.26202521491e-06
2.63626234335e-08
8.18055598347e-10
1.08052030382e-10
2.50640239629e-11
6.08374864962e-12
1.29066683477e-12
2.24625329829e-13
3.09713416031e-14
3.02554275808e-15
1.33036998905e-16
2.1592018806e-18
6.60969431848e-09
1.81543880118e-08
6.20617140957e-08
2.59190287307e-07
1.29481385608e-06
7.03871327652e-06
3.56623487281e-05
9.22835622016e-05
2.58311299937e-06
5.43987552805e-08
1.55381885694e-09
1.48346666782e-10
2.9295962926e-11
6.99679487608e-12
1.53999716353e-12
2.80950951986e-13
4.0449847239e-14
4.07416249012e-15
1.80559446128e-16
3.01402514274e-18
8.17724375999e-09
2.14706374265e-08
7.00781515243e-08
2.78558060936e-07
1.30880446464e-06
6.64457994309e-06
3.41074708652e-05
0.000125505671701
5.69754237134e-06
1.21391106904e-07
3.20170518158e-09
2.31258498006e-10
3.76725139943e-11
8.33105455466e-12
1.8375458881e-12
3.46447282358e-13
5.18512549453e-14
5.37759017695e-15
2.40060578393e-16
4.1234446242e-18
1.04429762114e-08
2.62595597539e-08
8.19822357903e-08
3.10170239296e-07
1.370701875e-06
6.52931974124e-06
3.2781478584e-05
0.000149671395999
9.81613356631e-06
2.12243094242e-07
5.12135270395e-09
2.95559642474e-10
4.56642948531e-11
9.81763792989e-12
2.17505982405e-12
4.21410532929e-13
6.53051959557e-14
6.95812060514e-15
3.12476349989e-16
5.52380770602e-18
1.36306044302e-08
3.2834660645e-08
9.79429772471e-08
3.51586653319e-07
1.45552145189e-06
6.47534869974e-06
3.1146671269e-05
0.000157771711355
1.53842388226e-05
3.49363381638e-07
7.6168767631e-09
3.20375990277e-10
4.90289946039e-11
1.08961832363e-11
2.49504295847e-12
5.01208975095e-13
8.05610768603e-14
8.8118298506e-15
3.97650884228e-16
7.23506791923e-18
1.80777451505e-08
4.16826997534e-08
1.18446327251e-07
4.01380684438e-07
1.54698713141e-06
6.37057283096e-06
2.85716668806e-05
0.00014440862358
2.32142535925e-05
5.78221166867e-07
1.16938194273e-08
3.44991365964e-10
4.86416844532e-11
1.1327116857e-11
2.73953581101e-12
5.78118111624e-13
9.69399765412e-14
1.0899223567e-14
4.9410778868e-16
9.25673578467e-18
2.43078943397e-08
5.35214821663e-08
1.44179173377e-07
4.57858248908e-07
1.62778069217e-06
6.11179327133e-06
2.45713440414e-05
0.00010991731075
3.25854873952e-05
9.3021195253e-07
1.83840177149e-08
4.67746823774e-10
5.05848725658e-11
1.14669703841e-11
2.9010849281e-12
6.46065640698e-13
1.1355505132e-13
1.31474573053e-14
5.99078452065e-16
1.1566431657e-17
3.32193874621e-08
6.96755331191e-08
1.77140235599e-07
5.23987846864e-07
1.70769104166e-06
5.79552466784e-06
2.04310384002e-05
7.36757218297e-05
4.19544537948e-05
1.62664828263e-06
3.22890257231e-08
7.37022707284e-10
5.79826777674e-11
1.17268688891e-11
3.00648430111e-12
7.02236024417e-13
1.29490686835e-13
1.5451589156e-14
7.08168972058e-16
1.41060360113e-17
4.64028877007e-08
9.26148290197e-08
2.21761594097e-07
6.10152978755e-07
1.82749125162e-06
5.66430136847e-06
1.80130688101e-05
5.57272272088e-05
5.19144712173e-05
2.73822231462e-06
5.62217038332e-08
1.17207648664e-09
6.85861218623e-11
1.20881981884e-11
3.06690881839e-12
7.44612919395e-13
1.43788974421e-13
1.76727355638e-14
8.14884549278e-16
1.67603110147e-17
6.63666680868e-08
1.25895431253e-07
2.83374770997e-07
7.24858055732e-07
2.00347190803e-06
5.73882746638e-06
1.69283954817e-05
4.82868169354e-05
6.17657380517e-05
4.11749518181e-06
9.14816468232e-08
1.77319049031e-09
7.79679103371e-11
1.21706381543e-11
3.05819219007e-12
7.69578713669e-13
1.55412655136e-13
1.96480422239e-14
9.11175646808e-16
1.93591152217e-17
9.67770132087e-08
1.74160891083e-07
3.67698588951e-07
8.74124827606e-07
2.23812794315e-06
5.97975777451e-06
1.66468771295e-05
4.50428054789e-05
7.03899872776e-05
5.80912771532e-06
1.65602542095e-07
3.02392374765e-09
9.75762382514e-11
1.24249966646e-11
3.00406739373e-12
7.77070672258e-13
1.6364276749e-13
2.1230269111e-14
9.89505397258e-16
2.17187026212e-17
1.42699996462e-07
2.43204862538e-07
4.80844492799e-07
1.06282592378e-06
2.5307304347e-06
6.34905472233e-06
1.68046886104e-05
4.36433021314e-05
7.69210282983e-05
7.70261976737e-06
2.77951206586e-07
6.05404799992e-09
1.53407654231e-10
1.42447873914e-11
3.02158955729e-12
7.76877511576e-13
1.68725838957e-13
2.23428576431e-14
1.04515828311e-15
2.36917174755e-17
2.10705330313e-07
3.39926566973e-07
6.29435140558e-07
1.29648142229e-06
2.88579832794e-06
6.84308618446e-06
1.73052993274e-05
4.32972515515e-05
8.08931108286e-05
9.53368031083e-06
4.34282846739e-07
1.1986259811e-08
2.75819249136e-10
1.88610701235e-11
3.24591261026e-12
7.85750977622e-13
1.72035414196e-13
2.30124103088e-14
1.07732385911e-15
2.51918945336e-17
3.08575476209e-07
4.71898696571e-07
8.20342512493e-07
1.58181813326e-06
3.31350046432e-06
7.47747923414e-06
1.81360899441e-05
4.38145381887e-05
8.23512339184e-05
1.11378132736e-05
6.37748518443e-07
2.21018925131e-08
5.25677589188e-10
2.76089798962e-11
3.79161849258e-12
8.21849153424e-13
1.75778450404e-13
2.33708187885e-14
1.08920560196e-15
2.62036187905e-17
4.44475737176e-07
6.46658937016e-07
1.06066756479e-06
1.92809875136e-06
3.83234731974e-06
8.28983266424e-06
1.9367446964e-05
4.55288334555e-05
8.15431696169e-05
1.23770237534e-05
8.74090347895e-07
3.73926704834e-08
1.00536217391e-09
4.22047192243e-11
4.73380340534e-12
8.99404280174e-13
1.82418905122e-13
2.36288824156e-14
1.08763062661e-15
2.67943133031e-17
6.25964047138e-07
8.71577879265e-07
1.35949612521e-06
2.35240633399e-06
4.48273965488e-06
9.38341168869e-06
2.13377493307e-05
5.0231739495e-05
7.89836473251e-05
1.3386570505e-05
1.12416907444e-06
5.86977064145e-08
1.86918182375e-09
6.61439349547e-11
6.15899888875e-12
1.0289115992e-12
1.94236858559e-13
2.40308744548e-14
1.081807752e-15
2.71126787804e-17
8.60345636021e-07
1.15627908768e-06
1.73413242185e-06
2.8936062914e-06
5.36271881265e-06
1.10405254205e-05
2.50767560221e-05
6.30061715685e-05
7.5470831491e-05
1.3983869194e-05
1.36247909348e-06
8.60651910981e-08
3.30486725674e-09
1.07113195113e-10
8.26358582058e-12
1.22289074447e-12
2.13286342649e-13
2.48078921478e-14
1.08120922214e-15
2.7355248881e-17
1.15768184321e-06
1.51703833554e-06
2.21494203801e-06
3.61272547636e-06
6.60014395247e-06
1.35438790478e-05
3.12677309642e-05
8.55718817778e-05
7.06463391802e-05
1.40954641691e-05
1.57211141519e-06
1.17340281188e-07
5.45960620357e-09
1.79476085803e-10
1.14350411824e-11
1.5012773231e-12
2.41518814455e-13
2.61398365779e-14
1.09327934409e-15
2.77086112531e-17
1.53397802763e-06
1.975439128e-06
2.82921391177e-06
4.52876602106e-06
8.12229295625e-06
1.63115672326e-05
3.66825855347e-05
9.91725993993e-05
6.43253847306e-05
1.36971478761e-05
1.73195537089e-06
1.50039086307e-07
8.48010451981e-09
3.09014597227e-10
1.64462009849e-11
1.89921016969e-12
2.81039781376e-13
2.81353446231e-14
1.12211866136e-15
2.83072870337e-17
2.01840339279e-06
2.56530768373e-06
3.61219392873e-06
5.65886126042e-06
9.85428799789e-06
1.89428959857e-05
4.00681801311e-05
0.000101220162003
5.66998206677e-05
1.28157922887e-05
1.82107197825e-06
1.80859698432e-07
1.24939468214e-08
5.33214297482e-10
2.46820136032e-11
2.46799149321e-12
3.33624685595e-13
3.07812188759e-14
1.16693226309e-15
2.91915982913e-17
2.66190708121e-06
3.34309569611e-06
4.62431699143e-06
7.05710374953e-06
1.1816361474e-05
2.14162835485e-05
4.18764220165e-05
9.4747879884e-05
4.82484842032e-05
1.15440780756e-05
1.82913964677e-06
2.07129797104e-07
1.71133405989e-08
8.7854622529e-10
3.81329734052e-11
3.25589841817e-12
3.98682051541e-13
3.3838615354e-14
1.22055494136e-15
3.0287691355e-17
3.55462666814e-06
4.41592941876e-06
6.00613880828e-06
8.94117732123e-06
1.44576231375e-05
2.50874456085e-05
4.75054628629e-05
8.34271882267e-05
3.96241461556e-05
1.00168781791e-05
1.75782701301e-06
2.2585110168e-07
2.18168292635e-08
1.36393656131e-09
6.0350333547e-11
4.33795982054e-12
4.74089656595e-13
3.69026413334e-14
1.27280121865e-15
3.14822284743e-17
4.87606362922e-06
6.02611123317e-06
8.14337689025e-06
1.20598245905e-05
1.95817569402e-05
3.53167110978e-05
7.50551758756e-05
7.37974003421e-05
3.21373031783e-05
8.49668688111e-06
1.63487903422e-06
2.36252028732e-07
2.61237614346e-08
1.99927816428e-09
9.62601331075e-11
5.81349692179e-12
5.56302383352e-13
3.9506813709e-14
1.3154052768e-15
3.27404934034e-17
6.74892403259e-06
8.23277299711e-06
1.08978914158e-05
1.56548912254e-05
2.44088514686e-05
4.20537441022e-05
8.05853712925e-05
6.07462923706e-05
2.51493358375e-05
6.97591400227e-06
1.46450874396e-06
2.36246222243e-07
2.95622694689e-08
2.69964715822e-09
1.47444740634e-10
7.67777949353e-12
6.34771814224e-13
4.10279221312e-14
1.34074820601e-15
3.40819250945e-17
9.58457116964e-06
1.16244626489e-05
1.53136457938e-05
2.20820636572e-05
3.54793346848e-05
6.56214298157e-05
7.52772661411e-05
4.72166255666e-05
1.8975371321e-05
5.53229405682e-06
1.26114843182e-06
2.2545871706e-07
3.16741160791e-08
3.35486905162e-09
2.16741995361e-10
1.00863889365e-11
7.02624420087e-13
4.11036882434e-14
1.34760995436e-15
3.56341347033e-17
1.37352977485e-05
1.65577597774e-05
2.17206126177e-05
3.14551757712e-05
5.1273984739e-05
7.31079099254e-05
6.17917901306e-05
3.44651629867e-05
1.37252230576e-05
4.21647093229e-06
1.03984706696e-06
2.04812941577e-07
3.21027961668e-08
3.86938862495e-09
2.98512147125e-10
1.32411505201e-11
7.54013462698e-13
3.95929823928e-14
1.33506655577e-15
3.74360453404e-17
2.04273049536e-05
2.50377795256e-05
3.38717970479e-05
5.10649176379e-05
6.82417632373e-05
6.57338161013e-05
4.59936892649e-05
2.39926698867e-05
9.66946458009e-06
3.14688480336e-06
8.40127868256e-07
1.81994411229e-07
3.16864788474e-08
4.30141888415e-09
3.90790464281e-10
1.77068683949e-11
7.68941218643e-13
3.57102048052e-14
1.27369725286e-15
3.85097378099e-17
1.22715896826e-30
4.15533635866e-32
5.55903110213e-30
3.24871440717e-31
2.89811361332e-29
2.48886844342e-30
1.21410147476e-28
9.52806661134e-30
4.20814886867e-28
2.80978932138e-29
1.28546439334e-27
7.2908986814e-29
3.59209434684e-27
1.73930225752e-28
9.35956015286e-27
3.88917434372e-28
2.30658262311e-26
8.25807321835e-28
5.44399213654e-26
1.68262795993e-27
1.24187952709e-25
3.31250628297e-27
2.75313743909e-25
6.73257806936e-27
5.94886851765e-25
1.4219400951e-26
1.25506585539e-24
2.96150862149e-26
2.58895300695e-24
6.06756784502e-26
5.22779244171e-24
1.22292509511e-25
1.03447015762e-23
2.42526112243e-25
2.00819850373e-23
4.73413437995e-25
3.82895549795e-23
9.10049133705e-25
7.17589349573e-23
1.72457831387e-24
1.32254657434e-22
3.21770617907e-24
2.39758168325e-22
5.9020450958e-24
4.27470413222e-22
1.06398106076e-23
7.49384034849e-22
1.88456405605e-23
1.291440304e-21
3.27942556577e-23
2.18671540438e-21
5.61082042163e-23
3.63686817798e-21
9.41972272481e-23
5.93699953304e-21
1.55053462186e-22
9.50477595052e-21
2.50048117212e-22
1.4920664805e-20
3.95048173187e-22
2.29906688741e-20
6.12158173545e-22
3.48100284769e-20
9.31575517237e-22
5.17817761282e-20
1.39234136846e-21
7.56028937822e-20
2.04223627008e-21
1.08267592331e-19
2.93809390123e-21
1.52020659045e-19
4.14472331674e-21
2.09088003236e-19
5.72770643254e-21
2.81273760351e-19
7.74239540249e-21
3.69766383804e-19
1.02285555242e-20
4.75004513104e-19
1.32065285722e-20
5.95922731607e-19
1.66554123481e-20
7.28699013441e-19
2.04759974065e-20
8.66434758839e-19
2.44793831244e-20
1.00070364958e-18
2.84293782559e-20
1.12373201071e-18
3.21040058756e-20
1.22957522787e-18
3.53287979906e-20
1.31475702398e-18
3.79957378599e-20
1.37943781462e-18
4.01006994574e-20
1.42822929149e-18
4.1773975967e-20
1.46933812585e-18
4.32627523697e-20
1.51190284599e-18
4.48584504664e-20
1.56368602244e-18
4.68326594569e-20
1.62858872292e-18
4.93692231689e-20
1.70562993571e-18
5.25486243403e-20
1.79279362e-18
5.64861964311e-20
1.89365554675e-18
6.15720065933e-20
2.01659527206e-18
6.85637777305e-20
2.17665494886e-18
7.87821639505e-20
2.38464064616e-18
9.41549552314e-20
2.56991356336e-18
1.22227985718e-19
)
;

boundaryField
{
    inletfuel
    {
        type            fixedValue;
        value           uniform 0;
    }
    inletair
    {