/*--------------------------------*- C++ -*----------------------------------*\
  =========                 |
  \\      /  F ield         | OpenFOAM: The Open Source CFD Toolbox
   \\    /   O peration     | Website:  https://openfoam.org
    \\  /    A nd           | Version:  dev
     \\/     M anipulation  |
\*---------------------------------------------------------------------------*/
FoamFile
{
    version     2.0;
    format      ascii;
    class       volScalarField;
    location    "0.3";
    object      H2;
}
// * * * * * * * * * * * * * * * * * * * * * * * * * * * * * * * * * * * * * //

dimensions      [0 0 0 0 0 0 0];

internalField   nonuniform List<scalar> 
1629
(
1.39953408014e-19
1.33500351862e-19
1.08705257151e-19
1.92593407274e-17
2.64896773671e-17
4.58879949927e-17
1.43310573173e-15
3.03849348592e-15
1.10956610814e-14
7.94197627018e-14
2.53252399049e-13
1.77617296483e-12
3.06003423092e-12
1.02024885197e-11
5.79043848447e-11
1.16653081824e-10
4.231302679e-10
2.1714736502e-09
3.43312601206e-09
1.26362698568e-08
5.84734660241e-08
6.14646752233e-08
2.15920420209e-07
9.31332200747e-07
3.32978605997e-07
9.32223959943e-07
3.12262176415e-06
1.07326241943e-06
2.39906483005e-06
6.36745834565e-06
2.53426218139e-06
4.67080530036e-06
1.01907691159e-05
4.8781485736e-06
7.7240495427e-06
1.44157117316e-05
8.49018490746e-06
1.21929544949e-05
2.08571161849e-05
1.51170502891e-05
2.09838555278e-05
3.59124229656e-05
2.83973655952e-05
3.88181063447e-05
6.62098795158e-05
5.21039965641e-05
6.88684939085e-05
0.000111622662656
8.82802980311e-05
0.000111569886793
0.000168317368043
0.000137146557012
0.000165964172476
0.000233485681177
0.000198280369328
0.000231428128783
0.00030707498952
0.000271697894369
0.00030839660272
0.000390935459693
0.000357989909417
0.000397841330768
0.000486776240234
0.000457684827676
0.000500258714517
0.000594673426245
0.000570785513666
0.000615400466838
0.000713669629503
0.000696642382363
0.000742426080949
0.000842592517588
0.000833981529845
0.000879999155154
0.000980098845585
0.000981281722066
0.00102667981599
0.00112500732084
0.00113740793773
0.00118156650677
0.00127695730298
0.00130186725549
0.00134444698749
0.0014363330809
0.00147461665225
0.00151549570231
0.00160372996014
0.00165549739888
0.0016946119605
0.0017790994197
0.00184377324185
0.00188098482674
0.0019614105783
0.00203816368925
0.00207327041529
0.00214917117168
0.00223699364561
0.00226980663991
0.00234076902733
0.00243847785834
0.0024688939276
0.00253471013178
0.00264132617781
0.00266937439236
0.00273012789212
0.002845186413
0.00287102469714
0.00292706865692
0.00305032041066
0.00307416485945
0.00312596222431
0.00325683739775
0.00327887691935
0.00332681749491
0.00346408453496
0.0034844321449
0.00352873638898
0.00367062664939
0.003689327122
0.00373007152003
0.00387473979644
0.00389181870631
0.00392904688225
0.00407498943336
0.00409050209644
0.00412433112985
0.00427067205146
0.00428472832432
0.00431539845577
0.00446193882879
0.00447469479148
0.00450254679257
0.00464955154725
0.0046611764191
0.00468657664821
0.00483442376315
0.00484506251639
0.00486832092572
0.00501714970483
0.00502689575062
0.00504820743324
0.0051977075348
0.00520659081192
0.00522601144047
0.00537531218471
0.00538329712832
0.00540073941135
0.00554816440155
0.00555514921279
0.00557038192431
0.00571285624458
0.00571867390088
0.00573132520893
0.00586353730197
0.00586796835872
0.00587755534869
0.00599130433776
0.00599410526922
0.00600009629789
0.0060843548676
0.00608529434777
0.00608718700446
0.00612925060898
0.00612815009472
0.00612555882743
0.00611280739736
0.00610958203565
0.00610232770118
0.006023527308
0.00601821589459
0.00600639155844
0.00585163693845
0.00584439592576
0.00582835200638
0.00558684401259
0.00557786767633
0.00555803282661
0.00522370450089
0.00521331834347
0.00519041213407
0.00476287619464
0.00475144544373
0.00472626733442
0.00421211780374
0.00419996213585
0.00417320529149
0.00357898342372
0.00356592596354
0.00353716997943
9.91834900071e-12
2.36269849598e-10
7.57093396537e-09
1.96176832382e-07
3.31874919682e-06
8.98227554154e-06
1.4954426515e-05
2.02307464672e-05
2.52304735619e-05
3.53371683208e-05
6.4595282859e-05
0.000119651504774
0.000189419485775
0.00026363086527
0.000339956338977
0.000421703141147
0.000513428493522
0.000617215903764
0.000731582873161
0.000854330507856
0.000984159685962
0.00112006153945
0.00126140821318
0.00140864206467
0.0015629017131
0.00172523267271
0.00189549338646
0.00207222966285
0.00225373094539
0.00243850314194
0.00262538710926
0.0028139351652
0.00300453771004
0.0031977248848
0.00339336676147
0.00359032168321
0.00378675510467
0.0039808671279
0.00417144720434
0.00435814997607
0.00454141181368
0.00472206031853
0.00490084034044
0.00507801310184
0.00525315699066
0.00542507923022
0.00559157154903
0.00574882896306
0.00589069143434
0.00600812468844
0.00608941477603
0.00612145990488
0.00609166859497
0.00598932379572
0.0058053868587
0.00552977892667
0.00515789691437
0.00469060601237
0.00413535255023
0.00349645168643
5.92186939728e-16
2.93759566683e-15
7.21134204398e-15
1.05430033351e-14
8.83143320148e-15
4.74874651439e-15
1.80006319322e-15
5.11171606296e-16
1.14195998826e-16
2.06357561406e-17
3.05961834016e-18
3.75937207925e-19
3.85861895955e-20
3.33320097591e-21
2.44328815861e-22
1.53546769596e-23
8.39494847143e-25
4.06479194644e-26
1.77224545288e-27
4.06148385679e-29
1.03422976544e-14
4.86985742278e-14
1.41205299232e-13
2.28243673737e-13
1.79216878408e-13
8.53112299533e-14
2.81422210066e-14
6.95761493924e-15
1.36841601494e-15
2.1975606261e-16
2.92253586659e-17
3.25310578774e-18
3.05782272588e-19
2.44786132859e-20
1.68484220245e-21
1.00929118838e-22
5.3572959658e-24
2.57557057609e-25
1.11466187514e-26
2.53915767547e-28
1.95170468831e-13
4.91869256384e-13
1.65560183656e-12
2.91936357425e-12
2.12434309049e-12
9.00250038201e-13
2.62735342928e-13
5.80252176149e-14
1.0318234563e-14
1.50913122128e-15
1.84243085457e-16
1.89868375352e-17
1.6670697166e-18
1.25834561306e-19
8.25073651909e-21
4.76461923249e-22
2.47325211792e-23
1.18881214096e-24
5.17000960335e-26
1.11283317936e-27
6.59247974948e-12
5.95807157727e-12
1.81407151318e-11
3.00870359101e-11
1.99228279508e-11
7.6808066282e-12
2.04729212831e-12
4.19314919778e-13
6.96257385784e-14
9.57617230426e-15
1.10743888168e-15
1.08873387217e-16
9.18143429305e-18
6.70075288676e-19
4.27704792887e-20
2.42289383741e-21
1.24553870131e-22
6.01411666387e-24
2.68358173373e-25
6.98074823178e-27
3.75083432011e-10
1.97088167653e-10
2.88048964455e-10
3.45194695885e-10
1.92913807136e-10
6.6049820719e-11
1.59045901264e-11
2.99749905829e-12
4.61838881302e-13
5.96257630381e-14
6.54688315572e-15
6.17397195469e-16
5.03932166337e-17
3.58765542825e-18
2.24976587378e-19
1.26083344801e-20
6.46135980979e-22
3.14355415296e-23
1.44170942386e-24
4.69576192836e-26
1.95895634456e-08
1.98519749544e-08
7.91534105592e-09
4.54266623782e-09
1.89251734879e-09
5.54203784151e-10
1.19105732092e-10
2.03052324694e-11
2.88074406473e-12
3.4859141395e-13
3.64342060281e-14
3.31266591945e-15
2.63393002494e-16
1.84198765869e-17
1.14247450371e-18
6.37107582657e-20
3.26733135622e-21
1.60112248114e-22
7.44424286609e-24
2.73257441212e-25
7.28482952678e-07
2.44507226027e-06
4.37058169913e-07
8.97240651195e-08
2.06329904027e-08
4.44068161443e-09
8.06469192742e-10
1.22625014992e-10
1.60322926355e-11
1.83243377135e-12
1.84262548032e-13
1.63368065565e-14
1.27912087858e-15
8.8723812526e-17
5.48746323842e-18
3.06382188406e-19
1.57756252705e-20
7.77092596035e-22
3.60444664968e-23
1.38665466662e-24
1.67702754098e-05
0.000178890759911
2.32967211204e-05
2.67742166267e-06
2.63568160868e-07
3.10090719098e-08
4.31899991999e-09
5.88350068921e-10
7.3065031258e-11
8.15198740794e-12
8.11922905012e-13
7.1890310455e-14
5.64905503762e-15
3.94443218135e-16
2.46019371837e-17
1.38614251831e-18
7.19487322261e-20
3.55753652964e-21
1.6278898625e-22
6.23758425785e-24
3.54740652015e-05
0.000290994094388
3.22201000409e-05
3.95758510889e-06
5.04673349536e-07
7.22775853464e-08
1.16027632906e-08
1.78497767574e-09
2.42591860448e-10
2.88548352217e-11
3.01223022325e-12
2.76635943297e-13
2.23973338595e-14
1.60407771009e-15
1.02252074689e-16
5.86665649064e-18
3.08470707368e-19
1.53111963853e-20
6.87029614585e-22
2.5378060381e-23
4.53714832623e-05
0.000195587486499
3.84925685566e-05
4.45130187154e-06
7.0854079891e-07
1.24733536501e-07
2.35884274085e-08
4.2149903271e-09
6.50668555886e-10
8.55799935929e-11
9.66234832551e-12
9.43994264314e-13
8.03269160047e-14
5.99140164143e-15
3.947927944e-16
2.32491284956e-17
1.24400130384e-18
6.20449452237e-20
2.72344652947e-21
9.53048733888e-23
4.93794541211e-05
0.000135858585739
4.51319380706e-05
6.95904392192e-06
1.31030160951e-06
2.42417147941e-07
4.82343058812e-08
9.40796601601e-09
1.60531646309e-09
2.31569542324e-10
2.83157158486e-11
2.96004698168e-12
2.66669728506e-13
2.08648569378e-14
1.43006765951e-15
8.68500985914e-17
4.74301604847e-18
2.37910310243e-19
1.02114043871e-20
3.3589927712e-22
5.32472765513e-05
0.00012658501125
0.000108588008961
1.86891472671e-05
3.46742638366e-06
6.02456231364e-07
1.12579968354e-07
2.20767650545e-08
3.96782313869e-09
6.10705520406e-10
7.96540500235e-11
8.84295222537e-12
8.4104951047e-13
6.9012381572e-14
4.92450228497e-15
3.08775980987e-16
1.72252087436e-17
8.69154089301e-19
3.64949894038e-20
1.12597643003e-21
7.74721810386e-05
0.000285831097904
0.0012800789111
0.000111374404154
1.32955376732e-05
1.85566095612e-06
3.00732641844e-07
5.55753284413e-08
1.00887848256e-08
1.61479591076e-09
2.20901211185e-10
2.57542596807e-11
2.56759832624e-12
2.20003408472e-13
1.63037651084e-14
1.05398135982e-15
6.00177548108e-17
3.04557236076e-18
1.25240837468e-19
3.63002866072e-21
0.000162091347489
0.000788722683828
0.00509091812819
0.000401496184781
3.80275140915e-05
5.00534724118e-06
7.79141707575e-07
1.40394133824e-07
2.57512138325e-08
4.25591946526e-09
6.05512789543e-10
7.35609120721e-11
7.63895431545e-12
6.80303672072e-13
5.21891646347e-14
3.4712054266e-15
2.01552538658e-16
1.02850815782e-17
4.15049787593e-19
1.13544359376e-20
0.000296550660026
0.00127306553209
0.00604630191433
0.000794289418983
0.000103084659301
1.51390434012e-05
2.24159135092e-06
3.737372618e-07
6.65669472035e-08
1.11183643278e-08
1.62666404332e-09
2.04559029632e-10
2.20338033249e-11
2.03394233352e-12
1.61248832001e-13
1.10247855221e-14
6.52746257513e-16
3.35328681436e-17
1.33247616367e-18
3.46575388079e-20
0.000422017517809
0.00137585729549
0.00377704625923
0.000356724807618
0.000126259364383
2.70963345224e-05
4.74207317512e-06
8.31174567762e-07
1.52735790445e-07
2.66174119274e-08
4.07914991268e-09
5.3678706933e-10
6.03669479219e-11
5.80018688169e-12
4.76598478917e-13
3.3576368877e-14
2.03206820015e-15
1.05417362809e-16
4.14595603821e-18
1.03501761688e-19
0.000522824934142
0.00134774447558
0.00269923905869
0.000787270624084
0.000169531818481
3.83325143655e-05
7.60622302808e-06
1.47277931482e-06
2.93759021601e-07
5.55419245612e-08
9.18408922317e-09
1.29171683077e-09
1.53897307249e-10
1.55474823124e-11
1.33376563775e-12
9.73648659363e-14
6.05301307958e-15
3.18700139778e-16
1.24878856504e-17
3.02526471654e-19
0.000611107835721
0.00135216523838
0.00259222487162
0.00396816503649
0.000396747760362
5.93570498982e-05
1.13680125375e-05
2.33609011832e-06
5.03574211512e-07
1.03916277458e-07
1.87515620268e-08
2.85371381793e-09
3.64131518381e-10
3.9025559154e-11
3.52079428521e-12
2.67969140283e-13
1.72103330214e-14
9.25065350775e-16
3.63742263119e-17
8.65025839407e-19
0.000703383450532
0.001429674163
0.00283354742284
0.00607779088842
0.000825561677305
0.000106502997421
1.90408555906e-05
3.88076832327e-06
8.59077713711e-07
1.87545389539e-07
3.63674618406e-08
5.9546524316e-09
8.13204950039e-10
9.26263937999e-11
8.81478710335e-12
7.02090478141e-13
4.67859064925e-14
2.58040009924e-15
1.02496448357e-16
2.41946503273e-18
0.000809564594374
0.00156198526122
0.00309831264415
0.00656211380889
0.00133366592749
0.000223665223657
4.19220622923e-05
7.9498145641e-06
1.63892640427e-06
3.5298024818e-07
7.05946721959e-08
1.21559002266e-08
1.75517210294e-09
2.11194944771e-10
2.11532369209e-11
1.76356776027e-12
1.22180721368e-13
6.9388904823e-15
2.7994503713e-16
6.62504333324e-18
0.00092922156302
0.00170671703493
0.00322827659416
0.00611237254965
0.000649673518448
0.000264704446264
6.80551000714e-05
1.4542840846e-05
3.03897898681e-06
6.56984557163e-07
1.35070907345e-07
2.42847394777e-08
3.68300676488e-09
4.65944696961e-10
4.89847720975e-11
4.27112419379e-12
3.07896975591e-13
1.80491608606e-14
7.42873722439e-16
1.77808481998e-17
0.00105460061616
0.0018257244918
0.00318347488663
0.00513988281813
0.00125794140333
0.000336125030707
9.12199545281e-05
2.17001681747e-05
4.8879994924e-06
1.11411422434e-06
2.4217827338e-07
4.61707507145e-08
7.41176495877e-09
9.89295931718e-10
1.09343010581e-10
9.98325424471e-12
7.50062869929e-13
4.5498692799e-14
1.91823433951e-15
4.68073675839e-17
0.00118079533287
0.00192062963526
0.00309891088897
0.00456921941005
0.00400068706027
0.000617879727685
0.00012858445569
3.07895968647e-05
7.3159943143e-06
1.76004478922e-06
4.07022513491e-07
8.29575260548e-08
1.42006977908e-08
2.01079316018e-09
2.34554161594e-10
2.24909275808e-11
1.76594607514e-12
1.11184403406e-13
4.82154390366e-15
1.20833087587e-16
0.00130766218417
0.00200912216343
0.00306179759038
0.00440291406338
0.00549935880747
0.00106849641869
0.000217382680965
5.04032795729e-05
1.1713355653e-05
2.80819299424e-06
6.69087838372e-07
1.43773021591e-07
2.61307156686e-08
3.92460239282e-09
4.83872871607e-10
4.88344077346e-11
4.01755863242e-12
2.63337160774e-13
1.17933455602e-14
3.05617010433e-16
0.00143588272238
0.00209886915692
0.00306147512068
0.00431337114009
0.0056653724524
0.000468292449727
0.000239351556018
7.1538842358e-05
1.80261448594e-05
4.39731155983e-06
1.07245983954e-06
2.41104652714e-07
4.63402076424e-08
7.37290884981e-09
9.61178780399e-10
1.02247060351e-10
8.83244997682e-12
6.04376434865e-13
2.80557762714e-14
7.56399272676e-16
0.00156644807106
0.0021935533747
0.00309096387705
0.00429053914699
0.00583219744273
0.000622422559011
0.000263480316008
8.86977547382e-05
2.45595714934e-05
6.32777916687e-06
1.61419539545e-06
3.83510607325e-07
7.840672961e-08
1.32677783974e-08
1.83439546707e-09
2.06215926925e-10
1.87527479051e-11
1.34334830166e-12
6.4865668483e-14
1.82935919978e-15
0.00170154593274
0.00229749874143
0.00314797636952
0.00431113058564
0.00589425943801
0.0015070915921
0.000353600155435
0.000108310620636
3.12210260394e-05
8.48298358468e-06
2.28124047347e-06
5.76415956774e-07
1.26069855977e-07
2.28037035917e-08
3.3574848377e-09
4.00212607015e-10
3.8426626463e-11
2.89008025286e-12
1.45642254819e-13
4.31751899662e-15
0.00184369050076
0.00241382912202
0.00322932559782
0.00435744281233
0.00590386537845
0.00342745105171
0.000632773257466
0.000147839980711
4.07848553771e-05
1.13003982866e-05
3.14649133121e-06
8.37085701879e-07
1.95061256135e-07
3.76941945633e-08
5.91612920748e-09
7.48996783305e-10
7.60797269462e-11
6.02092800206e-12
3.17523793093e-13
9.93479381618e-15
0.00199457209559
0.00254305244491
0.00332918529797
0.0044161526033
0.00588685966884
0.00509102186949
0.00109243720752
0.000239502049959
6.10836352427e-05
1.62000409028e-05
4.45080054958e-06
1.2109193542e-06
2.96042698243e-07
6.06598700383e-08
1.0114355443e-08
1.35837196325e-09
1.45976253489e-10
1.21673100055e-11
6.72670310147e-13
2.22824965126e-14
0.00215344402945
0.00268002787488
0.00343019079102
0.00444263530515
0.00571689004424
0.00538583791555
0.000486265516532
0.00025880401391
8.22141213091e-05
2.29263246514e-05
6.30697324908e-06
1.73959258854e-06
4.41993349023e-07
9.54397344565e-08
1.68456739446e-08
2.39544027971e-09
2.7214227507e-10
2.38934446077e-11
1.38613441158e-12
4.87184477228e-14
0.00231765695741
0.00281808324692
0.00352078707166
0.00443594038235
0.00550681147159
0.00546703128786
0.000596581099535
0.000276693083951
9.95008548886e-05
2.99335720716e-05
8.52213243046e-06
2.41706831258e-06
6.40668184865e-07
1.45915151583e-07
2.72682056959e-08
4.10559178848e-09
4.93143839335e-10
4.56224451329e-11
2.77956448551e-12
1.03827173662e-13
0.00248502217764
0.00295505158179
0.00360470766893
0.00442699208326
0.00536033824485
0.00560590846001
0.00110631582461
0.000329623273053
0.000117894838518
3.73787238909e-05
1.10684624326e-05
3.24455266276e-06
8.98886521076e-07
2.16196013757e-07
4.28201646055e-08
6.83201291041e-09
8.68212973984e-10
8.46916842381e-11
5.42345405744e-12
2.15606564507e-13
0.00265445993618
0.00309235966097
0.00369130735927
0.00444080311408
0.00530217131376
0.00578709485204
0.00189740590886
0.000430569841007
0.000146128761201
4.74178221185e-05
1.436605878e-05
4.29827725816e-06
1.23440263979e-06
3.12232546235e-07
6.54291749662e-08
1.10556847371e-08
1.48630114922e-09
1.52910538479e-10
1.02978164755e-11
4.36162556046e-13
0.00282570316117
0.00323244478856
0.00378786078512
0.00448708027766
0.00532076366364
0.00599087889577
0.0028563434011
0.000187239535424
0.000146437706105
5.67972203801e-05
1.82707599772e-05
5.60496393107e-06
1.6618342359e-06
4.40504936524e-07
9.74725002198e-08
1.74245735365e-08
2.47687805197e-09
2.68714755661e-10
1.90354061814e-11
8.59624401916e-13
0.00299927059296
0.00337772652414
0.00389798155102
0.00456409865457
0.00539075625504
0.00620905019862
0.0041165636982
0.000261133810725
0.000152200520381
6.49701573708e-05
2.22798551739e-05
7.07478746808e-06
2.17230318075e-06
6.03869301149e-07
1.41177658803e-07
2.67140079897e-08
4.01663387107e-09
4.59647129089e-10
3.4260942051e-11
1.6508175461e-12
0.00317621077068
0.00352979417171
0.00402079876807
0.0046587590635
0.00546286977009
0.00629471429197
0.00472194192897
0.000428661988348
0.000169356928881
7.31877393918e-05
2.62987488577e-05
8.64657141786e-06
2.75188834282e-06
8.02563034291e-07
1.98422002689e-07
3.9787474185e-08
6.33390079326e-09
7.65102188469e-10
6.00411752844e-11
3.08938340133e-12
0.00335711874349
0.00368836841291
0.00415214665763
0.00475790908956
0.00551479906349
0.00627153160323
0.00492973440749
0.000673951721078
0.000197826145019
8.30260167312e-05
3.07091919452e-05
1.03893908994e-05
3.41056159621e-06
1.03987789356e-06
2.71491868177e-07
5.76778713466e-08
9.72399533968e-09
1.24029698778e-09
1.02514613276e-10
5.63733456379e-12
0.00354145671833
0.00385144265143
0.0042871437491
0.00485435258283
0.00554858170516
0.00620412709395
0.00501122146226
0.000970395416119
0.000205427090659
9.31467806804e-05
3.58523859086e-05
1.24341040888e-05
4.17776723934e-06
1.32316528908e-06
3.63495497326e-07
8.16800684091e-08
1.45720852947e-08
1.96186863214e-09
1.70783015491e-10
1.00419981107e-11
0.00372752643924
0.00401607093688
0.00442165042019
0.00494546837681
0.00557199033405
0.00612880974543
0.00506397995744
0.00129443888209
8.66722998541e-05
8.93497350263e-05
4.02396310705e-05
1.466802982e-05
5.0508993426e-06
1.65504880143e-06
4.76972539978e-07
1.13181899387e-07
2.13492845029e-08
3.03231880201e-09
2.77965788403e-10
1.74831202735e-11
0.00391311559797
0.00417954617418
0.00455332424121
0.00503196691988
0.00559329719124
0.00606552175651
0.00514321208736
0.00170698835797
0.00010362647902
8.66773543742e-05
4.37854835565e-05
1.69025447893e-05
5.98863502599e-06
2.02790988618e-06
6.12190419197e-07
1.53302074293e-07
3.05682876563e-08
4.58008492242e-09
4.42151499297e-10
2.97639074325e-11
0.00409642791105
0.00434053287675
0.00468246285883
0.00511784596649
0.00562209636349
0.00602946787746
0.00525133537849
0.00221844857715
0.000166484845958
8.89399202665e-05
4.70833125241e-05
1.91051294914e-05
6.96469744551e-06
2.43286824694e-06
7.68056926425e-07
2.02845862104e-07
4.27561595656e-08
6.75879390872e-09
6.87325567103e-10
4.95558113117e-11
0.00427656691201
0.00449914589401
0.00481112823872
0.00520802299298
0.0056655128769
0.00602547729679
0.00538332321752
0.00278412379283
0.000263183457586
9.60753241705e-05
5.07281416839e-05
2.13776973214e-05
7.9920729553e-06
2.86872212151e-06
9.4422315942e-07
2.62621164949e-07
5.84854042143e-08
9.75240173581e-09
1.04484626773e-09
8.07411473062e-11
0.0044536094137
0.00465647880324
0.00494183134909
0.00530613341436
0.00572587193285
0.00604857798905
0.00551948883719
0.00331532401807
0.000382174448318
9.50080384581e-05
5.39105124237e-05
2.3761128532e-05
9.09881100523e-06
3.34005439079e-06
1.14130712641e-06
3.33545926998e-07
7.83967764853e-08
1.37820579127e-08
1.55546808344e-09
1.28890951697e-10
0.00462829261249
0.00481381214652
0.00507614804974
0.00541268299787
0.00579891853165
0.0060827820318
0.00562079520384
0.0036903229174
0.000496118492698
5.09945288216e-05
5.15877846635e-05
2.57634704344e-05
1.0255189606e-05
3.84511173037e-06
1.35866250241e-06
4.16213262177e-07
1.03125531276e-07
1.91006416035e-08
2.27060589949e-09
2.0182882145e-10
0.00480147833992
0.00497186734178
0.00521394533383
0.00552492652252
0.005876153503
0.00611048843138
0.00566324908892
0.00387509967709
0.000600491050152
3.55870254774e-05
4.70272419573e-05
2.71620362467e-05
1.13978655484e-05
4.37157136117e-06
1.59261693841e-06
5.10326767154e-07
1.33158595101e-07
2.59708758436e-08
3.25167279155e-09
3.10178005965e-10
0.00497368722853
0.00513048650105
0.00535357616028
0.00563834917376
0.00594890184212
0.0061205739849
0.00564988492841
0.00394178467043
0.000696942925694
4.3412083048e-05
4.30175044749e-05
2.80372526115e-05
1.24869811875e-05
4.90680939283e-06
1.83814955453e-06
6.14793019482e-07
1.6877346942e-07
3.46457645758e-08
4.56869315893e-09
4.67911477208e-10
0.00514478992537
0.00528858443394
0.00549231835244
0.00574781526873
0.00600984585138
0.00610694634962
0.00558770383043
0.00393772072743
0.000782242575968
5.69442015648e-05
3.98549693992e-05
2.84943208747e-05
1.35146811096e-05
5.44654666969e-06
2.09163498173e-06
7.28319624967e-07
2.1010512338e-07
4.53680488352e-08
6.300560123e-09
6.93076095838e-10
0.00531391825704
0.00544430238633
0.005626875483
0.00584847215767
0.00605406425371
0.00606891933064
0.00549088521446
0.00388791984506
0.000850783993164
7.20117615544e-05
3.64080939523e-05
2.84794613322e-05
1.4472649712e-05
5.99254395805e-06
2.35135934535e-06
8.49691580618e-07
2.57195173816e-07
5.83729928708e-08
8.53612973392e-09
1.00867892815e-09
0.00547943528628
0.0055950727123
0.00575349365216
0.00593569523549
0.00607785440815
0.00600645080907
0.00536639721897
0.00380356794336
0.000896460229259
8.60683048048e-05
2.97758559784e-05
2.75297499937e-05
1.52950428715e-05
6.54295026814e-06
2.61601081622e-06
9.77525688908e-07
3.09922917244e-07
7.38690994803e-08
1.13722054695e-08
1.44330471824e-09
0.00563869480033
0.00573737703634
0.00586769419145
0.00600465854431
0.00607769459501
0.0059186220741
0.00521670323029
0.00368748541539
0.000917184952907
9.78544574412e-05
1.98711093429e-05
2.51172863638e-05
1.58395627678e-05
7.08426509062e-06
2.88319507404e-06
1.10997958054e-06
3.67893576541e-07
9.2000082897e-08
1.49067123654e-08
2.03095199275e-09
0.00578747965982
0.00586624945221
0.00596388415293
0.00604995880646
0.0060496620202
0.00580327265393
0.00504142440128
0.00353876750315
0.000911923276005
0.000106794243815
1.39345244077e-05
2.18743925921e-05
1.60066672762e-05
7.59752735473e-06
3.15012342912e-06
1.24495267429e-06
4.30425926365e-07
1.12816625982e-07
1.92300935333e-08
2.80999108493e-09
0.00591932888112
0.00597478505249
0.00603504294775
0.00606526789972
0.00598879966305
0.00565619745646
0.00483613875024
0.00334748764805
0.000880841175486
0.00011651695705
1.29977013565e-05
1.87442496311e-05
1.57870998939e-05
8.06508408468e-06
3.41506659457e-06
1.38056974036e-06
4.96633984495e-07
1.36267441202e-07
2.44174590349e-08
3.82137458377e-09
0.00602510482009
0.00605381192678
0.00607231315615
0.00604243523793
0.00588724822193
0.00546768506677
0.0045853501991
0.00307860811832
0.000822539285489
0.000122441923058
1.40483623481e-05
1.61293979061e-05
1.52219223194e-05
8.46815321484e-06
3.67746640673e-06
1.51542048873e-06
5.65476535868e-07
1.6218596747e-07
3.05193027284e-08
5.10617331593e-09
0.006093215013
0.00609209504537
0.00606507096768
0.00597146437448
0.00573496696792
0.00522660000689
0.00427708658966
0.00271081830726
0.000751449441492
0.000124055348371
1.55403707197e-05
1.40568080004e-05
1.43776605658e-05
8.78436628156e-06
3.93805714381e-06
1.64878229388e-06
6.35799850029e-07
1.9026893113e-07
3.75495432783e-08
6.70252238713e-09
0.00611094005682
0.00607779623646
0.00600283373726
0.00584385202585
0.00552680863236
0.00493575100744
0.00393436168693
0.00231639310823
0.000669342702292
0.000121245052826
1.68284471585e-05
1.23442255417e-05
1.33233672659e-05
8.98544424595e-06
4.19836183663e-06
1.78075452271e-06
7.06373259958e-07
2.20050244403e-07
4.54737577245e-08
8.64333977975e-09
0.00606635472262
0.00600051957807
0.00587764265658
0.00565549462448
0.00526514278344
0.00460863175805
0.00358372238609
0.00194051776945
0.000580322467361
0.000114372636696
1.75967313546e-05
1.08360368981e-05
1.21237995081e-05
9.03490386674e-06
4.45600693629e-06
1.91140482135e-06
7.75706674679e-07
2.50824526726e-07
5.41921111126e-08
1.09550700665e-08
0.00594961599904
0.00585241228258
0.00568473973574
0.00540619545258
0.00495609577726
0.00425776621409
0.00323272771808
0.00160146223544
0.000491403662765
0.000104528667751
1.77504153194e-05
9.47309054733e-06
1.08577838277e-05
8.9004025745e-06
4.70099197339e-06
2.04021028871e-06
8.41966384629e-07
2.81592033133e-07
6.35313181758e-08
1.3660631396e-08
0.00575248941547
0.00562697137341
0.00542000093347
0.0050944757046
0.00459944604679
0.00387638310475
0.00284294463158
0.00130021653255
0.000406700877391
9.2761821603e-05
1.73035570277e-05
8.28797706707e-06
9.60853319771e-06
8.57482373819e-06
4.91517813316e-06
2.16630435888e-06
9.03180817028e-07
3.11108827357e-07
7.32631872684e-08
1.67875868078e-08
0.00546507889008
0.00531441851969
0.00507296222505
0.00470667105209
0.00417140349478
0.00341090268384
0.0022767948504
0.00100927305019
0.000324873070733
7.94398995991e-05
1.62523982696e-05
7.29820892383e-06
8.44914429542e-06
8.08099953315e-06
5.0725731906e-06
2.28801151033e-06
9.57374565533e-07
3.37980985059e-07
8.31452881379e-08
2.03813940084e-08
0.00508374990424
0.00491344854112
0.00464635759706
0.00425261456158
0.0036946527619
0.00291013918764
0.00173174997509
0.000754342321832
0.000250859862014
6.5688865946e-05
1.47166742559e-05
6.47623548169e-06
7.4175580699e-06
7.46612425865e-06
5.14523299483e-06
2.40302149757e-06
1.00295785795e-06
3.6084207773e-07
9.29765224302e-08
2.45228645884e-08
0.00460950532583
0.00442490203905
0.00413918748102
0.00372378322328
0.00313514005218
0.00227019534673
0.0012527825482
0.000542839848662
0.000187131219574
5.24376755654e-05
1.2852888158e-05
5.76291375914e-06
6.50753543392e-06
6.78284487442e-06
5.12167573294e-06
2.51020440661e-06
1.03947628531e-06
3.78654507288e-07
1.02673496938e-07
2.93471351314e-08
0.00404938682276
0.00385450858113
0.00355399027546
0.00311501423058
0.00247566517537
0.0016111037816
0.000856306301958
0.000373700957754
0.00013422698012
4.02682353396e-05
1.08055990887e-05
5.09466441452e-06
5.69771146335e-06
6.09302991209e-06
4.99070444706e-06
2.60814099332e-06
1.0679075348e-06
3.90821261704e-07
1.12292859182e-07
3.51269959676e-08
0.00340386457361
0.00319271652733
0.00286234630773
0.00236677863747
0.00170654474327
0.00105499000194
0.000556157063275
0.000248507818575
9.3874952582e-05
3.02801136765e-05
8.90848518088e-06
4.43361289009e-06
4.95938413066e-06
5.43650550887e-06
4.75822644823e-06
2.6916999967e-06
1.0852139877e-06
3.96313672187e-07
1.21856571654e-07
4.23094319727e-08
4.17238794607e-26
8.05895600611e-26
5.33919063892e-26
9.16270417677e-26
1.48330971763e-25
1.7836274398e-25
5.57472480068e-25
4.86795349647e-25
2.00473918296e-24
1.28737421463e-24
6.69662570938e-24
3.41261458566e-24
2.11308618505e-23
9.04126474082e-24
6.39246120564e-23
2.3918671822e-23
1.87700695598e-22
6.33106626055e-23
5.40865666407e-22
1.68302885116e-22
1.54249884792e-21
4.50927341689e-22
4.37554338923e-21
1.21973697105e-21
1.23649287809e-20
3.32924447395e-21
3.47787823369e-20
9.14810377573e-21
9.71676926071e-20
2.52239124365e-20
2.6914256435e-19
6.95691038413e-20
7.38211747691e-19
1.91460091585e-19
2.00373857013e-18
5.24854606856e-19
5.3782880833e-18
1.43103876835e-18
1.42552040065e-17
3.87529191941e-18
3.72426916382e-17
1.03935825982e-17
9.57109477695e-17
2.75158895625e-17
2.41423275936e-16
7.1708615992e-17
5.96467018244e-16
1.83507469644e-16
1.44088970224e-15
4.60193709124e-16
3.39864773211e-15
1.12962373828e-15
7.82207039712e-15
2.70874358928e-15
1.75549795501e-14
6.33671030703e-15
3.83937868645e-14
1.44466961882e-14
8.17916384164e-14
3.20744410599e-14
1.69707000097e-13
6.93234416497e-14
3.42982546347e-13
1.4584858266e-13
6.75320008601e-13
2.98730330153e-13
1.29612491297e-12
5.95935405444e-13
2.42729721915e-12
1.15884416097e-12
4.44024082509e-12
2.19879810584e-12
7.93925522886e-12
4.07382101543e-12
1.38799175446e-11
7.37356596047e-12
2.37398243365e-11
1.30452338707e-11
3.97638747186e-11
2.25783449171e-11
6.52919587544e-11
3.8264147504e-11
1.0515708784e-10
6.35357782024e-11
1.66155664463e-10
1.03393223802e-10
2.57626980748e-10
1.64927133316e-10
3.9214168155e-10
2.57939728447e-10
5.86161785996e-10
3.95587324963e-10
8.60429815456e-10
5.94877664205e-10
1.23991374767e-09
8.76857073295e-10
1.75325079454e-09
1.26639945988e-09
2.431809507e-09
1.79172032372e-09
3.30851438477e-09
2.48376748932e-09
4.41730010344e-09
3.3762090813e-09
5.79365797245e-09
4.50646483762e-09
7.47896040834e-09
5.92058615244e-09
9.52751478016e-09
7.68004776253e-09
1.20114186457e-08
9.86297100855e-09
1.50397982214e-08
1.25862608571e-08
1.87609155922e-08
1.59976765058e-08
2.34177975588e-08
2.02912842288e-08
3.04166808222e-08
2.74959644203e-08
)
;

boundaryField
{
    inletfuel
    {
        type            fixedValue;
        value           uniform 0;
    }
    inletair
    {
        type            fixedValue;
        value           uniform 0;
    }
    outlet
    {
        type            zeroGradient;
    }
    axis
    {
        type            empty;
    }
    leftside
    {
        type            zeroGradient;
    }
    burnerwall
    {
        type            zeroGradient;
    }
    front
    {
        type            wedge;
    }
    back
    {
        type            wedge;
    }
}

