/*--------------------------------*- C++ -*----------------------------------*\
  =========                 |
  \\      /  F ield         | OpenFOAM: The Open Source CFD Toolbox
   \\    /   O peration     | Website:  https://openfoam.org
    \\  /    A nd           | Version:  dev
     \\/     M anipulation  |
\*---------------------------------------------------------------------------*/
FoamFile
{
    version     2.0;
    format      ascii;
    class       volScalarField;
    location    "0.3";
    object      H2O;
}
// * * * * * * * * * * * * * * * * * * * * * * * * * * * * * * * * * * * * * //

dimensions      [0 0 0 0 0 0 0];

internalField   nonuniform List<scalar> 
1629
(
4.73702248542e-17
4.51946441434e-17
3.68100625351e-17
6.51714305985e-15
8.96684437995e-15
1.55380346769e-14
4.84769163748e-13
1.02839267668e-12
3.75688702029e-12
2.68501948096e-11
8.56939225107e-11
6.01372785829e-10
1.0325554623e-09
3.4466195344e-09
1.95794115322e-08
3.92462316525e-08
1.42597313921e-07
7.3290661085e-07
1.147482971e-06
4.23538322199e-06
1.96546977812e-05
2.01310748156e-05
7.10830036739e-05
0.000308477369129
9.36773692676e-05
0.000256611060466
0.000829256187981
0.000270145400535
0.000586832603018
0.00149010870548
0.00058969108213
0.00105749110344
0.00221423313196
0.00107437580648
0.00166438640931
0.0030111248266
0.00173711238218
0.00242301738701
0.00394182786291
0.00259519176398
0.00336580942026
0.00506778895519
0.00367489799994
0.0045316110898
0.00643741613333
0.00499533978045
0.00593541010221
0.00803184304441
0.00655760082233
0.00756717081688
0.00980979808003
0.0083479546844
0.0094061877994
0.0117407949139
0.0103472318881
0.0114331264179
0.0138124749028
0.0125386935868
0.0136358017627
0.0160275214248
0.0149103898067
0.0160071953676
0.0183905064197
0.0174538167093
0.0185411746862
0.0208983509533
0.0201634381214
0.0212331381471
0.0235468824904
0.0230318686145
0.0240757925522
0.0263288382901
0.0260448605436
0.0270545484987
0.0292294407879
0.0291844579518
0.0301519884911
0.0322330111359
0.0324377075701
0.0333576278638
0.0353347577438
0.0357976437893
0.0366673126145
0.0385364224445
0.039256890929
0.0400752933404
0.0418351048378
0.0428007520977
0.0435669848321
0.045215834634
0.046408749592
0.0471217821758
0.0486574506533
0.0500632600812
0.0507231929726
0.0521459458273
0.0537516285883
0.0543602169673
0.0556739569825
0.0574622526172
0.0580222484062
0.0592328633324
0.0611829420533
0.0616971900159
0.0628105070939
0.0649029440908
0.0653741515328
0.0663956083971
0.0686127615255
0.0690436143969
0.0699786888513
0.0723030357063
0.0726963748759
0.0735509890111
0.0759644067525
0.076323250218
0.0771037756972
0.079589475158
0.0799169094874
0.0806298809923
0.0831746048871
0.0834736714587
0.084125522416
0.0867182793586
0.0869917794617
0.0875884291603
0.090218187766
0.0904685026261
0.0910149665357
0.0936695097564
0.0938985332358
0.0943987874667
0.0970657998478
0.097275019423
0.0977321878528
0.100401742069
0.100592401884
0.101009109356
0.103674927685
0.103848109832
0.104226646092
0.10688477147
0.107041318333
0.107383453155
0.110027610049
0.110167929649
0.110474482815
0.113087561661
0.113211445448
0.113481901922
0.11602490159
0.116131557764
0.116364168215
0.11876877406
0.118857266716
0.119050032171
0.121225914553
0.121295989846
0.121448462447
0.123311004147
0.123363857884
0.123478771714
0.124982783366
0.125021103837
0.12510440838
0.126259279164
0.126286481743
0.126345644366
0.127202834554
0.127222071551
0.127263931908
0.127891179646
0.127904723889
0.127934179726
0.128395238938
0.128404427822
0.128424337051
0.128739285457
0.128744219525
0.128754728359
0.128892385195
0.128892305932
0.1288916852
0.128774206434
0.128767741284
0.128752899825
0.128338344802
0.128323475369
0.128289817327
3.35927905173e-09
7.99648891746e-08
2.5595935788e-06
6.61594903585e-05
0.00110771881573
0.00225681711788
0.00330067141641
0.00418853483839
0.00511768571316
0.00625370886387
0.00765314769722
0.00934068595101
0.0111929939847
0.0131308425091
0.0151341006164
0.0172175048444
0.0194130428101
0.0217402493701
0.0241931941028
0.0267640319705
0.0294452108075
0.0322236525183
0.0350879743895
0.0380417448102
0.0410935618685
0.0442426451465
0.0474723466265
0.0507604259161
0.0540964081024
0.0574777961875
0.0608982515858
0.0643450135196
0.0678060331722
0.0712719556569
0.0747348434518
0.0781867378246
0.0816207150261
0.0850328123955
0.0884200123596
0.0917774305062
0.0950973274273
0.0983708925116
0.101591443992
0.104755643411
0.107861421284
0.11090239978
0.113858914914
0.116687804707
0.119317634918
0.121659687505
0.123637745878
0.12521962575
0.126427538356
0.127321926195
0.127974936836
0.12845168263
0.128768677258
0.128889639604
0.12873030488
0.128239779124
1.99932970558e-13
9.91722905651e-13
2.4341172952e-12
3.55696837713e-12
2.97715391502e-12
1.59944522841e-12
6.05756745212e-13
1.71870269874e-13
3.8362607611e-14
6.92624339366e-15
1.02603049624e-15
1.25955955808e-16
1.29162903554e-17
1.11469412775e-18
8.16266695381e-20
5.12412480809e-21
2.79803427684e-22
1.35279687993e-23
5.91650778122e-25
2.17042584587e-26
3.49401108933e-12
1.6447510744e-11
4.76805925746e-11
7.7020371132e-11
6.04141957989e-11
2.87268143931e-11
9.46597054535e-12
2.33778278402e-12
4.59314661639e-13
7.368609957e-14
9.78932223318e-15
1.08849899047e-15
1.0220263583e-16
8.17203593912e-18
5.61765302932e-19
3.36046475694e-20
1.78080630475e-21
8.54458068662e-23
3.73711882708e-24
4.87452129537e-25
6.60479531287e-11
1.66231382364e-10
5.59297360039e-10
9.85331483487e-10
7.16105065891e-10
3.03072330117e-10
8.83354452548e-11
1.94841260798e-11
3.4604935534e-12
5.05519777393e-13
6.16419287328e-14
6.3444328356e-15
5.56310195392e-16
4.19313318144e-17
2.74497090963e-18
1.58226588632e-19
8.19567252964e-21
3.92925888405e-22
1.75052699014e-23
1.23939964749e-23
2.23418008894e-09
2.01549565294e-09
6.13096211905e-09
1.01560922753e-08
6.71548872712e-09
2.58521460862e-09
6.88072235969e-10
1.40726667937e-10
2.33352109955e-11
3.20518361066e-12
3.70164952879e-13
3.63401819228e-14
3.05999199747e-15
2.22951128115e-16
1.42040010732e-17
8.02878539885e-19
4.11668247403e-20
1.98166208883e-21
9.15767723043e-23
2.95842655198e-22
1.27173521047e-07
6.67813027832e-08
9.74017433629e-08
1.16532065478e-07
6.50168290475e-08
2.22236296592e-08
5.34257736e-09
1.00529459188e-09
1.54652041145e-10
1.99364949133e-11
2.1857413262e-12
2.05802388719e-13
1.67695497976e-14
1.19160868485e-15
7.45605155261e-17
4.16785785477e-18
2.12939646901e-19
1.03228671326e-20
4.81284828078e-22
6.07301726833e-22
6.64052636982e-06
6.72938184186e-06
2.67709869042e-06
1.53344092168e-06
6.37624280209e-07
1.86367712154e-07
3.99780944767e-08
6.80302644465e-09
9.63458899088e-10
1.16388139138e-10
1.21442806439e-11
1.10224840543e-12
8.74723032725e-14
6.10377886569e-15
3.77609362186e-16
2.09937084803e-17
1.07277946593e-18
5.23523214836e-20
2.44420900067e-21
9.92177028449e-22
0.000246784467507
0.000827347306837
0.000147743801962
3.02755582681e-05
6.94704885792e-06
1.491779364e-06
2.70316025503e-07
4.10135768298e-08
5.35135079866e-09
6.10473309331e-10
6.12718312115e-11
5.42166384414e-12
4.2355692923e-13
2.93029461215e-14
1.80676550931e-15
1.00508278201e-16
5.15300516427e-18
2.52599096024e-19
1.17024078527e-20
1.68936635136e-21
0.00564805428156
0.0584381137398
0.00780722201323
0.000900374649121
8.85573389099e-05
1.03906541622e-05
1.44304355229e-06
1.96085281948e-07
2.42988665341e-08
2.70577112412e-09
2.68958842478e-10
2.37620259114e-11
1.86230023204e-12
1.29621940186e-13
8.05384753381e-15
4.51730785915e-16
2.33257128828e-17
1.14675045798e-18
5.22959440998e-20
3.62624224579e-21
0.00804595771301
0.0461404129547
0.0090638364375
0.00125129903133
0.000164154152417
2.37421444167e-05
3.82529474663e-06
5.89162471556e-07
8.00635235027e-08
9.51417628674e-09
9.91552615492e-10
9.08413243688e-11
7.33115289223e-12
5.22932366708e-13
3.31727524634e-14
1.89256117332e-15
9.88844644336e-17
4.87534625521e-18
2.17820837895e-19
1.01252584428e-20
0.0091430179006
0.0311038520659
0.00973562449407
0.00136543756104
0.000225552913081
4.02778530327e-05
7.67227677413e-06
1.37585741305e-06
2.1263438092e-07
2.79488007684e-08
3.14894197584e-09
3.06625402522e-10
2.59768162206e-11
1.92717050444e-12
1.26199717422e-13
7.38036341467e-15
3.91958200599e-16
1.9400845497e-17
8.47805190946e-19
3.23382552816e-20
0.00955943014755
0.0229596548523
0.0111642869487
0.00198765910495
0.00039794264283
7.64101331585e-05
1.54764925544e-05
3.03395492492e-06
5.17441444043e-07
7.4421328229e-08
9.06062489131e-09
9.42138841266e-10
8.43570343643e-11
6.55520053211e-12
4.45951195994e-13
2.68691140265e-14
1.45537553945e-15
7.24248889034e-17
3.09711598277e-18
1.05548404696e-19
0.0105248892246
0.0269393605466
0.0559381800863
0.00803005045558
0.00132947686421
0.000211979332324
3.72148622205e-05
7.04065524971e-06
1.24186302739e-06
1.89091141587e-07
2.44778736601e-08
2.69991245046e-09
2.55156404356e-10
2.07981277101e-11
1.47370200233e-12
9.17281972108e-14
5.07916458792e-15
2.545296827e-16
1.06714357526e-17
3.35693476467e-19
0.0122163410095
0.0330399066879
0.0975367122927
0.0147570592878
0.0025248690985
0.00043146367862
7.72442657879e-05
1.49188701308e-05
2.76792471146e-06
4.48553034008e-07
6.18088276126e-08
7.23388592765e-09
7.22131953944e-10
6.18347561491e-11
4.57249484573e-12
2.94638319021e-13
1.6713410973e-14
8.45175597524e-16
3.48476218451e-17
1.02725582679e-18
0.0143575071819
0.0376730865733
0.114767754547
0.0204676295991
0.00362442304013
0.00069509117995
0.000135433127095
2.78816825903e-05
5.56738399863e-06
9.74929027536e-07
1.44417440954e-07
1.80457055649e-08
1.91083033151e-09
1.7243694892e-10
1.33438238811e-11
8.92382413986e-13
5.1989022072e-14
2.66035716469e-15
1.08318311246e-16
3.02384644449e-18
0.0168488274925
0.0418811508224
0.117650536881
0.0277822442196
0.00569470259313
0.00120252538178
0.000240598835622
5.04182963281e-05
1.0563565717e-05
1.98071681178e-06
3.15018328234e-07
4.20941264456e-08
4.73971671841e-09
4.51977235678e-10
3.6699136584e-11
2.55396098181e-12
1.53251512965e-13
7.96252139779e-15
3.21737973486e-16
8.58994430083e-18
0.01915422363
0.042394224824
0.090051277996
0.0622929260934
0.0113614855941
0.00230574577628
0.000446703274015
9.09642313136e-05
1.93430834792e-05
3.81874453618e-06
6.4778449774e-07
9.24018145045e-08
1.10689694203e-08
1.11715303934e-09
9.53819147942e-11
6.92455042767e-12
4.2924245916e-13
2.27293727256e-14
9.16421941099e-16
2.36361108067e-17
0.0212431365507
0.042399871615
0.0802623478028
0.0951703459528
0.0172780254812
0.00349912005767
0.000706170535529
0.000148248545266
3.27770837449e-05
6.87234217958e-06
1.24936541196e-06
1.90859803655e-07
2.43848455685e-08
2.61059982587e-09
2.34908820328e-10
1.7835549703e-11
1.14561770334e-12
6.20661596486e-14
2.51112125936e-15
6.32091085894e-17
0.0232105764491
0.0426399221212
0.0758677604094
0.113610182818
0.0228794998913
0.00460107767474
0.000982726762649
0.000219188284736
5.13840797756e-05
1.15471822414e-05
2.26334201246e-06
3.71936372383e-07
5.08427128027e-08
5.78800525298e-09
5.50128313052e-10
4.37876786447e-11
2.92292599817e-12
1.62637213472e-13
6.63958335268e-15
1.64772356809e-16
0.0251649693558
0.0432825617638
0.0734710851169
0.117790907139
0.0297151652526
0.00608910226304
0.00137934002711
0.00032202245685
7.86959781457e-05
1.87206959338e-05
3.93081746398e-06
6.93019189964e-07
1.01272415197e-07
1.22605637139e-08
1.23185837818e-09
1.02940266163e-10
7.15751479762e-12
4.10399536194e-13
1.69923685461e-14
4.19799279919e-16
0.0272131165283
0.0444788649778
0.0732247604394
0.120711222987
0.0384771412838
0.00916937207136
0.00223837442275
0.000522169106454
0.00012593951769
3.05477749021e-05
6.72586372022e-06
1.25743788324e-06
1.95178567109e-07
2.50433791645e-08
2.65601171288e-09
2.33021294713e-10
1.689849253e-11
1.00106769217e-12
4.22247832758e-14
1.04785051993e-15
0.0293934880402
0.0460443577342
0.0734955790743
0.118585511513
0.0764133992669
0.0166461206925
0.00394698588798
0.000896475837177
0.000208231665536
5.0205991363e-05
1.13958387675e-05
2.23630449073e-06
3.66387920247e-07
4.96309846428e-08
5.54432123309e-09
5.10338236336e-10
3.86249438494e-11
2.36872123971e-12
1.02171936668e-13
2.56772811433e-15
0.0316681636493
0.047621913784
0.0729097471928
0.110061051562
0.104913753492
0.0239766013781
0.00570338715461
0.00134635553777
0.000320015848768
7.88711483159e-05
1.86376239796e-05
3.85341323296e-06
6.67143135652e-07
9.5405914695e-08
1.12234265931e-08
1.08402383125e-09
8.57008953441e-11
5.45090353033e-12
2.41268250834e-13
6.18616321713e-15
0.0340097731127
0.0491335611681
0.0719519855647
0.102481414412
0.117215150225
0.031030410865
0.00746958798854
0.00186302895043
0.000463092037637
0.000118260858632
2.92700398042e-05
6.40149220496e-06
1.1745173526e-06
1.77639954772e-07
2.20319020554e-08
2.23526136815e-09
1.8484326018e-10
1.22177610228e-11
5.5676003163e-13
1.46633151531e-14
0.0364121277768
0.0506486096094
0.0712369498314
0.0975043484382
0.118433245665
0.0394259940527
0.0104674408881
0.00276033626249
0.000695392363821
0.000178308563612
4.53072563084e-05
1.03809518744e-05
2.0107624815e-06
3.2124886109e-07
4.20052175388e-08
4.47958440332e-09
3.87964262753e-10
2.67003798209e-11
1.25653466022e-12
3.42005222619e-14
0.0388745169422
0.0522488155281
0.0711222891552
0.0953868923861
0.122467953443
0.067935716652
0.0166858250414
0.00434681212091
0.00108287160035
0.000272541102199
6.96921454883e-05
1.65317626804e-05
3.36099695318e-06
5.65747555094e-07
7.79198683828e-08
8.73611763183e-09
7.93177362505e-10
5.69329866267e-11
2.77462874541e-12
7.84693965633e-14
0.0414004230615
0.0539703378234
0.0715307114188
0.0945929107337
0.12430057794
0.0919631835138
0.023385255219
0.00611369215873
0.00155598582718
0.000396204082538
0.000103276468801
2.54681932408e-05
5.44617958631e-06
9.6728716271e-07
1.4048709911e-07
1.65777143192e-08
1.57996173277e-09
1.18482575069e-10
5.99510469552e-12
1.77008599289e-13
0.0440106802098
0.0558478009823
0.072321373285
0.0941427270124
0.122411194715
0.11073685212
0.030873567218
0.0079913801378
0.00207817649966
0.000543563497371
0.000146153133085
3.76970324523e-05
8.5149459395e-06
1.60106601414e-06
2.45837855138e-07
3.05927682508e-08
3.06601623193e-09
2.40655454106e-10
1.26734361794e-11
3.92296610137e-13
0.0467237469245
0.0578839911549
0.073350273486
0.0936654664046
0.118997731657
0.118510656289
0.0394024233713
0.0103194438521
0.00275532598917
0.000737848031635
0.000203145435359
5.4465363057e-05
1.29571054683e-05
2.57777017641e-06
4.18638901724e-07
5.49891452949e-08
5.80175169868e-09
4.77316970695e-10
2.62142161433e-11
8.53719184846e-13
0.0495388075598
0.0600467264831
0.0745047515313
0.0931310108495
0.11525933087
0.118808463848
0.0489966969636
0.0140223002731
0.00389737106589
0.00104834940551
0.000287766576873
7.86149145523e-05
1.94717314127e-05
4.07436594903e-06
6.97803034788e-07
9.66231873007e-08
1.07293476752e-08
9.25656336793e-10
5.30848604004e-11
1.82384700738e-12
0.0524337892296
0.0622897815944
0.0757476940349
0.0928184234108
0.112807840128
0.121883804743
0.0740350334231
0.0204914570027
0.00570354445162
0.00152679795495
0.000413035927502
0.000113425282528
2.89736171768e-05
6.34126370372e-06
1.14171499739e-06
1.66361270112e-07
1.94262371131e-08
1.75730671875e-09
1.05309823999e-10
3.82453828538e-12
0.0553841121278
0.0645851309694
0.0770857530462
0.0928488826616
0.11153516449
0.125418823506
0.0930585968145
0.02747577495
0.00772078494899
0.0021049585577
0.000573783452099
0.000159760841147
4.21688056986e-05
9.6581830249e-06
1.82835021803e-06
2.803578508e-07
3.44276054032e-08
3.26616230871e-09
2.0466421055e-10
7.86882368515e-12
0.0583871747504
0.0669557426965
0.0785879498171
0.0932800070573
0.110981616504
0.126941836598
0.107532303507
0.0354517402861
0.0100359137339
0.00279403918775
0.000773629359019
0.00021923727943
5.98413694469e-05
1.4352663803e-05
2.85922958308e-06
4.6173477087e-07
5.96635802032e-08
5.93958563439e-09
3.89461534345e-10
1.5873257173e-11
0.0614505198561
0.0694299182679
0.0802912260439
0.0940672321994
0.110798828549
0.127022395827
0.115335813482
0.0450874583422
0.0133083101638
0.00378782502455
0.00105353220403
0.000299760554152
8.37804927888e-05
2.09344156043e-05
4.37871956971e-06
7.44051155679e-07
1.01145488448e-07
1.05674596749e-08
7.25415927608e-10
3.13742102628e-11
0.0645717504285
0.0720025670193
0.0821575309605
0.0950750655457
0.110753042563
0.126300517512
0.11969655353
0.0613676998494
0.0181846927996
0.00522744531227
0.00145157280326
0.000410462022966
0.00011627804252
3.0076540652e-05
6.58287036926e-06
1.17495890015e-06
1.67883102492e-07
1.84015377664e-08
1.3225693395e-09
6.07429355371e-11
0.0677355044201
0.0746409347471
0.0841075658134
0.0961398329226
0.110606263214
0.124890332682
0.122113201634
0.0756678074023
0.0237581996774
0.00694533163192
0.00194707236051
0.000551176169468
0.000158318379953
4.23381216184e-05
9.68953354145e-06
1.81604171075e-06
2.72698897819e-07
3.13566248749e-08
2.35993621577e-09
1.15170696917e-10
0.0709273107586
0.0773233998175
0.0861117952239
0.097258680756
0.110546317852
0.123715491209
0.123921285199
0.0887289683956
0.0302249148138
0.00894397904286
0.00253371717803
0.000721456949864
0.000210455973722
5.81896634824e-05
1.39295473183e-05
2.74295374054e-06
4.33083579429e-07
5.22610087093e-08
4.12010742157e-09
2.13812236412e-10
0.0741381308539
0.0800457364041
0.0881844741906
0.0985056001578
0.110784680138
0.123173371679
0.125833217063
0.0993766299375
0.0377228849862
0.0114017096707
0.00326704684662
0.000934287563268
0.000275591569145
7.84856824463e-05
1.96141925818e-05
4.05518697959e-06
6.7310585977e-07
8.52404487156e-08
7.04052968475e-09
3.88770050925e-10
0.0773623467287
0.0828110915702
0.0903477179978
0.0999329169764
0.111375451745
0.123139878725
0.127305466686
0.106824936288
0.046828088032
0.0146903106813
0.00426847800329
0.00121880990551
0.000359960511403
0.000104745783319
2.72015402926e-05
5.8902251725e-06
1.02644478218e-06
1.36301412586e-07
1.17907646434e-08
6.93006196672e-10
0.0805940674825
0.0856186665104
0.0926059656853
0.101537143851
0.112250927369
0.123385356581
0.128330170176
0.11248175761
0.0583731749741
0.019026643583
0.00561567866687
0.00159912844847
0.000469645124711
0.000138612186516
3.72295785446e-05
8.42125594288e-06
1.53825917231e-06
2.13964407433e-07
1.9374537517e-08
1.21227280999e-09
0.0838268654637
0.0884617132366
0.0949455290702
0.103277269719
0.113300184239
0.123715050179
0.128962899804
0.117097215698
0.0687523369314
0.0240502125187
0.00726451734971
0.00207553177477
0.000606667384428
0.000181050805831
5.01628706931e-05
1.18355793133e-05
2.26431824411e-06
3.29719933928e-07
3.12435213269e-08
2.08178784891e-09
0.0870561632251
0.0913332404428
0.0973504441579
0.105114719637
0.11444650425
0.12404728666
0.129193818743
0.120476089289
0.0781382752992
0.0297792491235
0.00924571951892
0.00265780780708
0.000773744263631
0.00023294043437
6.64346607404e-05
1.63330350862e-05
3.27129279073e-06
4.98546711656e-07
4.94332995177e-08
3.50937300185e-09
0.0902771042841
0.0942239754352
0.099801942796
0.107013839272
0.115634736529
0.124336938191
0.129084870149
0.122582439557
0.0860270191285
0.0361784322117
0.0116562414976
0.00338211845891
0.000979700622751
0.000296262577256
8.66659766948e-05
2.21605830786e-05
4.64245253047e-06
7.40078442438e-07
7.6773711456e-08
5.80984155904e-09
0.0934820033269
0.0971203934532
0.10227762521
0.108941420892
0.116827591583
0.124578959134
0.128763952456
0.123747963948
0.0922841388091
0.0431342479697
0.0146315279198
0.00431113249058
0.00124081908817
0.000374550126087
0.000111783567535
2.96409891715e-05
6.48471032718e-06
1.08027712649e-06
1.17194810709e-07
9.45618011194e-09
0.0966601514329
0.100006347925
0.104755385249
0.110872360226
0.118011043696
0.124812023614
0.128407462915
0.124368499851
0.0970341129851
0.0507957518483
0.0182829624623
0.00551032900745
0.00157637697034
0.000472104611618
0.000142874623544
3.91516325768e-05
8.92844339676e-06
1.55249432104e-06
1.76046253826e-07
1.51477429983e-08
0.0998004732981
0.102867351924
0.107218706675
0.112793297314
0.119189742782
0.125090263491
0.128162331048
0.124811050148
0.100992205282
0.0578656644639
0.0224845174124
0.00700719629093
0.00200121302877
0.000592650946334
0.00018090401327
5.10648281564e-05
1.21186077073e-05
2.19721242281e-06
2.60328835898e-07
2.38913459943e-08
0.10289506612
0.105694198053
0.109658532257
0.114698566398
0.120369078347
0.125436834775
0.128055754687
0.125215968759
0.104319513381
0.064058344023
0.0270980355538
0.00882753452661
0.00253198840898
0.000740232406261
0.000226801759738
6.57395003729e-05
1.62102822055e-05
3.06179439157e-06
3.7891608258e-07
3.71003365008e-08
0.105939692388
0.108481355036
0.11206788016
0.116579843798
0.121541941922
0.125840153883
0.128038945137
0.125566526764
0.106996456341
0.0693336526867
0.0319618994714
0.0110130399332
0.00319666978592
0.000921552566455
0.000281913187898
8.35921081669e-05
2.13783437019e-05
4.20213667296e-06
5.42992585959e-07
5.67322054544e-08
0.108930650282
0.111221669476
0.114434499283
0.118419577228
0.122690216188
0.126279956106
0.128089765482
0.125827667432
0.109010296706
0.0736662248656
0.0368623306133
0.0135978240328
0.00403584233426
0.00114735998542
0.000348335471367
0.000105161776107
2.78297623703e-05
5.68531545762e-06
7.66707245124e-07
8.54759104793e-08
0.111858577798
0.113899487151
0.116734733
0.120188466399
0.123786773083
0.126727633619
0.128168876132
0.125975772321
0.110373719879
0.0770240052526
0.0416645386513
0.0165827864062
0.00509658184044
0.00143242566763
0.000428959774913
0.000131110542048
3.58033070935e-05
7.59039014947e-06
1.06769004554e-06
1.26963660395e-07
0.114699818632
0.116483607988
0.118930242298
0.121847771729
0.124801703876
0.127155874781
0.128245934999
0.12601286253
0.111198290383
0.079694338864
0.0460679775563
0.0198865865996
0.00641998730161
0.00179493582277
0.000527429381853
0.000162195152641
4.55590069819e-05
1.00066319566e-05
1.46716758537e-06
1.85964850738e-07
0.11740788604
0.118922834004
0.120969403388
0.123355619916
0.125709172596
0.127544386916
0.12830167438
0.125951653381
0.111555338439
0.0817685591563
0.0498479466078
0.0233460661046
0.00803321591167
0.00225770484143
0.000648543061452
0.000199319266131
5.73772831001e-05
1.30320224448e-05
1.98988907248e-06
2.68551906638e-07
0.119911380698
0.121149116802
0.122795494818
0.124676288766
0.126493702025
0.12788335965
0.128325474367
0.125789662501
0.11145782332
0.0832005879467
0.0528978242912
0.026804142368
0.00994590159098
0.00285049488178
0.000799175969658
0.000243694114819
7.15764437165e-05
1.67741503565e-05
2.66417400093e-06
3.8225721166e-07
0.122127136968
0.123093655525
0.12436314831
0.125792816036
0.127158593287
0.128179481711
0.128305661297
0.125383733576
0.110905559636
0.0840187270945
0.055237765119
0.0301188796652
0.0121357543411
0.00360886839494
0.000989204414077
0.000297020592388
8.85326104376e-05
2.13511632475e-05
3.52191575263e-06
5.36242787722e-07
0.123988974935
0.124711685444
0.125655000628
0.126712744252
0.127721935329
0.128441526856
0.128217265375
0.124683072525
0.109850750894
0.0843031072279
0.0570491312558
0.0330956579198
0.014528375181
0.00457022264443
0.00123304405371
0.000361788718835
0.000108711035766
2.68926491609e-05
4.59844851957e-06
7.41518298591e-07
0.125474114049
0.125997780149
0.126682377341
0.12745362564
0.128186889913
0.128633151895
0.127976450307
0.123680618527
0.108403836436
0.0841295064103
0.0583966938137
0.0356103952502
0.0170303725202
0.00576973146016
0.0015523022325
0.000441801607211
0.000132722319373
3.35419050573e-05
5.93272895559e-06
1.01140352252e-06
0.126608602987
0.126982658432
0.127474516016
0.128029667918
0.128533959768
0.128686310515
0.127494756397
0.122289172314
0.106597063007
0.0835266648256
0.0592796043561
0.0375909164602
0.0195565767312
0.00722398368104
0.00197578791631
0.000542447278124
0.000161326510468
4.14470077402e-05
7.5667070597e-06
1.36232465245e-06
0.127450267214
0.12771607857
0.128064810092
0.128446582825
0.128731174652
0.128536291179
0.126732112587
0.1203889828
0.104408703393
0.0825144915666
0.0597306736647
0.0391664196024
0.0219213695472
0.00889975177643
0.0025359065226
0.000670956519581
0.000195430312366
5.0745996284e-05
9.54518238091e-06
1.81539969244e-06
0.128064952753
0.128249578651
0.128483488505
0.128707519631
0.128755392853
0.128154417754
0.125697019807
0.117923527532
0.10181180832
0.0811036340516
0.0597769722562
0.0403812444951
0.0239729820931
0.0107420137553
0.00326615972101
0.000837486991161
0.0002362090172
6.15691865722e-05
1.19201904925e-05
2.39939152868e-06
0.128511463275
0.128628740489
0.128758318109
0.128818617513
0.128584613274
0.127463186623
0.124066777782
0.114871204138
0.098837466109
0.0793336944902
0.0594511838476
0.0412399250195
0.0256282883021
0.0126835734512
0.00419195251557
0.00105595619807
0.000285218118049
7.40412530011e-05
1.47598044617e-05
3.1553004822e-06
0.128797726326
0.128842573425
0.128850353187
0.128703463153
0.128103978973
0.126352428913
0.121672975246
0.111246006782
0.0955260654362
0.0772533004954
0.0587973830713
0.0417752216689
0.0269806870003
0.0145702705925
0.00530985116747
0.0013445325159
0.000344605616347
8.82947350022e-05
1.81625061444e-05
4.14350398289e-06
0.128881624651
0.12883641404
0.128686759908
0.128264333747
0.127180328964
0.124544485995
0.11831362107
0.107065521704
0.0919042198715
0.0749065457855
0.057860949434
0.0420257903199
0.0280779010228
0.0162423538818
0.00663464371372
0.00173178128254
0.00041793137471
0.000104535102806
2.22809339648e-05
5.45316921886e-06
0.128674368294
0.12851069619
0.128150514087
0.127358780634
0.12560843496
0.121633607406
0.113979539998
0.102396197427
0.088029598251
0.0723556274036
0.0567039835642
0.0420467118899
0.0289605301431
0.0176850941642
0.00811836787049
0.00225532452102
0.000510922915021
0.00012304718458
2.73406000851e-05
7.24011945377e-06
0.128119160231
0.127790230368
0.127122087726
0.125740587784
0.122871538171
0.117509390841
0.109033844401
0.0977086299069
0.0843917815175
0.0700859775549
0.0557646444753
0.0421894345585
0.0298696913026
0.0190614596072
0.00968934191716
0.00295159876637
0.000623645675997
0.000143037727466
3.34956681598e-05
9.74511138893e-06
5.77482406881e-20
1.06929415913e-19
4.5718718014e-20
7.68069609246e-20
3.82007732573e-20
6.11775513796e-20
3.48361715571e-20
5.93871696938e-20
3.48234328461e-20
6.09300153286e-20
3.78948515001e-20
6.47039166328e-20
4.54926488482e-20
7.10457214388e-20
6.29202230689e-20
8.16762105493e-20
1.04905263874e-19
1.01042229106e-19
2.10588252976e-19
1.40363268165e-19
4.82154692852e-19
2.27720723649e-19
1.18361233368e-18
4.34205959492e-19
2.989107752e-18
9.39170187383e-19
7.60207824308e-18
2.19467448975e-18
1.92829980489e-17
5.33664762723e-18
4.85869436889e-17
1.3211085173e-17
1.21429491439e-16
3.292153099e-17
3.00879351156e-16
8.21251947708e-17
7.38927488862e-16
2.04492560251e-16
1.79744261722e-15
5.07454164211e-16
4.32666521881e-15
1.2520560299e-15
1.02945540143e-14
3.06360793817e-15
2.417833668e-14
7.41928383207e-15
5.59756231504e-14
1.77510481997e-14
1.27572208028e-13
4.18919759646e-14
2.85853474787e-13
9.74238482316e-14
6.29236076102e-13
2.22824296009e-13
1.35949698356e-12
5.00449051861e-13
2.88014226293e-12
1.10224370471e-12
5.97806701214e-12
2.37814584365e-12
1.21507717676e-11
5.02250973874e-12
2.41783012532e-11
1.0378542404e-11
4.70946163328e-11
2.09794967396e-11
8.9814718087e-11
4.14909995836e-11
1.67836018541e-10
8.03272590864e-11
3.07587855366e-10
1.52356537615e-10
5.53109872552e-10
2.83267825682e-10
9.76074192928e-10
5.16421480947e-10
1.69106443355e-09
9.23535031954e-10
2.87887084683e-09
1.62126586814e-09
4.82018097911e-09
2.79612083236e-09
7.94113802948e-09
4.74003517017e-09
1.28738748815e-08
7.89954811206e-09
2.05394030709e-08
1.29434985506e-08
3.22598231011e-08
2.0854893264e-08
4.98971924853e-08
3.30486372448e-08
7.60065084402e-08
5.15100878411e-08
1.13994999928e-07
7.8949595322e-08
1.68292603623e-07
1.18976434846e-07
2.44558249447e-07
1.76316804182e-07
3.4996004724e-07
2.57113758305e-07
4.93651798753e-07
3.69409926033e-07
6.87555993516e-07
5.23916136803e-07
9.47874717353e-07
7.3551330608e-07
1.29744274764e-06
1.02542260321e-06
1.76813548556e-06
1.42271951432e-06
2.40738330455e-06
1.97111079319e-06
3.28078307764e-06
2.72796252947e-06
4.49920562811e-06
3.77887667472e-06
6.57823227618e-06
5.82323126452e-06
)
;

boundaryField
{
    inletfuel
    {
        type            fixedValue;
        value           uniform 0;
    }
    inletair
    {
        type            fixedValue;
        value           uniform 0;
    }
    outlet
    {
        type            zeroGradient;
    }
    axis
    {
        type            empty;
    }
    leftside
    {
        type            zeroGradient;
    }
    burnerwall
    {
        type            zeroGradient;
    }
    front
    {
        type            wedge;
    }
    back
    {
        type            wedge;
    }
}


// ************************************************************************* //
