/*--------------------------------*- C++ -*----------------------------------*\
  =========                 |
  \\      /  F ield         | OpenFOAM: The Open Source CFD Toolbox
   \\    /   O peration     | Website:  https://openfoam.org
    \\  /    A nd           | Version:  dev
     \\/     M anipulation  |
\*---------------------------------------------------------------------------*/
FoamFile
{
    version     2.0;
    format      ascii;
    class       volScalarField;
    location    "0.3";
    object      HCO;
}
// * * * * * * * * * * * * * * * * * * * * * * * * * * * * * * * * * * * * * //

dimensions      [0 0 0 0 0 0 0];

internalField   nonuniform List<scalar> 
1629
(
1.31936234629e-26
1.17515295228e-26
8.55475453445e-27
1.91314169532e-24
2.3435710407e-24
3.51859191583e-24
1.55301890441e-22
2.77823108222e-22
8.45560744395e-22
1.00287856289e-20
2.67963026347e-20
1.643341995e-19
7.3035687307e-19
2.49175667045e-18
1.49030972704e-17
4.95721733822e-17
2.03950257109e-16
1.1622205569e-15
2.60917138859e-15
1.23351282044e-14
1.32383704974e-13
2.16345492919e-13
1.77125747596e-12
2.27282183103e-11
1.21704027099e-12
6.87446327197e-12
5.5285399126e-11
4.21511095414e-12
1.61824508295e-11
8.10258578925e-11
1.09563924704e-11
2.96876286488e-11
9.84123136462e-11
2.34971094008e-11
4.88297595638e-11
1.24097626387e-10
4.43204844751e-11
7.77998422001e-11
1.75212567457e-10
7.32883981306e-11
1.13269821565e-10
2.25410064753e-10
1.08869495507e-10
1.54853649796e-10
2.88553237102e-10
1.43496385207e-10
1.89104142002e-10
3.15321609557e-10
1.69480124878e-10
2.08895739514e-10
3.1046488509e-10
1.82502008447e-10
2.13023556145e-10
2.86991069763e-10
1.82832528058e-10
2.04945231953e-10
2.56744135418e-10
1.74689949197e-10
1.91151689903e-10
2.30543798669e-10
1.64021987389e-10
1.78539810919e-10
2.16597799569e-10
1.5390448102e-10
1.68102026549e-10
2.06907957211e-10
1.43979165503e-10
1.57502792881e-10
1.94307288616e-10
1.33586368884e-10
1.4598063322e-10
1.79387818434e-10
1.23411302692e-10
1.34961649766e-10
1.66134163881e-10
1.15382578486e-10
1.27030099011e-10
1.58608781412e-10
1.11875951368e-10
1.24737692999e-10
1.59486509838e-10
1.1477720616e-10
1.29728101796e-10
1.69435435488e-10
1.25178715457e-10
1.42635092529e-10
1.87942842429e-10
1.43140648943e-10
1.63107279255e-10
2.13900639645e-10
1.68068225364e-10
1.90423657262e-10
2.46488386992e-10
1.99914916179e-10
2.24805497797e-10
2.86630059138e-10
2.40218024467e-10
2.68292687645e-10
3.37529645039e-10
2.92683799247e-10
3.25046116472e-10
4.04286767683e-10
3.62769007908e-10
4.00704637609e-10
4.9286208542e-10
4.58532590267e-10
5.03569619514e-10
6.11953783237e-10
5.9222618065e-10
6.46191904117e-10
7.74767726118e-10
7.81449297339e-10
8.46460880962e-10
9.99736677758e-10
1.04837431696e-09
1.12644820463e-09
1.3086769635e-09
1.41648561035e-09
1.50919487079e-09
1.72363820036e-09
1.90869084684e-09
2.0173028287e-09
2.26666827469e-09
2.55129967893e-09
2.67745573867e-09
2.96570769738e-09
3.38459873419e-09
3.53113369774e-09
3.86484104145e-09
4.47267876514e-09
4.6437179984e-09
5.03220726739e-09
5.9064679848e-09
6.1069281394e-09
6.56103712393e-09
7.79574221877e-09
8.03011346548e-09
8.55932577439e-09
1.02441278973e-08
1.05143918656e-08
1.11221416687e-08
1.33044888033e-08
1.36073593335e-08
1.42849608282e-08
1.69148944211e-08
1.72385784527e-08
1.795834475e-08
2.08041597714e-08
2.11256856197e-08
2.18356253596e-08
2.43797762003e-08
2.46661672598e-08
2.52934713039e-08
2.67371167138e-08
2.69555404437e-08
2.74297069481e-08
2.70047634526e-08
2.71400166113e-08
2.74308012861e-08
2.49395808175e-08
2.50048009148e-08
2.51439324514e-08
2.12325741195e-08
2.126171357e-08
2.13249866998e-08
1.71588257614e-08
1.71889533944e-08
1.72576372499e-08
1.39504903565e-08
1.40103186019e-08
1.41467729275e-08
1.24470595992e-08
1.25550517287e-08
1.27990328182e-08
1.31229143035e-08
1.32905110318e-08
1.3666306447e-08
1.62618232158e-08
1.6494972376e-08
1.70144515089e-08
2.20220515209e-08
2.23102327886e-08
2.29474119743e-08
3.00601231208e-08
3.0347348962e-08
3.09739246898e-08
3.70508938594e-08
3.7186534183e-08
3.74675777552e-08
8.3640170437e-19
5.57157568238e-17
4.02869451444e-15
1.22277618729e-12
2.45274272631e-10
3.54386494418e-10
3.06328249978e-10
2.42503773106e-10
2.7721437524e-10
4.09840452184e-10
4.90746444633e-10
6.47918042445e-10
6.18941420803e-10
5.20653738297e-10
4.22890997796e-10
3.47984927591e-10
3.05473359004e-10
3.01409789058e-10
2.95898481577e-10
2.75510016782e-10
2.5061987568e-10
2.31377540275e-10
2.23794444682e-10
2.29499032861e-10
2.46629030929e-10
2.72871092513e-10
3.06362269588e-10
3.46352934219e-10
3.94997584757e-10
4.57313338928e-10
5.39570150617e-10
6.47829710921e-10
7.91165215504e-10
9.83653354409e-10
1.2442748372e-09
1.59439214584e-09
2.05472234435e-09
2.64719197293e-09
3.40204681637e-09
4.36713531341e-09
5.61419909334e-09
7.2379324193e-09
9.34331975012e-09
1.20155171431e-08
1.52715663112e-08
1.89946668461e-08
2.28446827759e-08
2.61721033536e-08
2.80830780299e-08
2.78244911702e-08
2.53298268456e-08
2.14127914339e-08
1.73613233923e-08
1.43523928553e-08
1.3160490099e-08
1.42156145844e-08
1.77651227486e-08
2.38553166262e-08
3.18445362917e-08
3.78194198961e-08
1.13439079299e-22
2.41049213024e-21
7.57094691953e-21
1.28358914541e-20
1.1391917897e-20
6.11977116271e-21
2.23837688461e-21
5.9998181058e-22
1.24630054282e-22
2.07033710721e-23
2.79606312194e-24
3.10551147525e-25
2.86257958214e-26
2.20818644447e-27
1.43821202947e-28
7.99465460767e-30
3.85010923546e-31
1.63491011416e-32
6.18619097441e-34
7.59400028717e-36
2.34064907822e-21
4.07710396079e-20
1.5955807256e-19
3.13048916552e-19
2.63467571204e-19
1.25594972026e-19
3.99790014708e-20
9.32324504783e-21
1.70282707899e-21
2.50905056882e-22
3.03154118402e-23
3.04023521043e-24
2.5561690451e-25
1.81884520952e-26
1.10663264676e-27
5.83150382335e-29
2.71122972833e-30
1.13652561663e-31
4.24165749098e-33
5.51485473585e-35
3.2067800488e-20
3.52952592057e-19
1.91139794904e-18
4.36896600617e-18
3.44590245622e-18
1.46318431641e-18
4.11181515477e-19
8.54145675656e-20
1.40617663195e-20
1.88124439177e-21
2.08027682407e-22
1.92554118712e-23
1.50746384979e-24
1.00804490498e-25
5.82187605498e-27
2.94599544918e-28
1.33372931874e-29
5.56322062125e-31
2.07794929037e-32
2.72670125862e-34
1.78953600854e-19
1.55615330024e-18
2.04901893878e-17
4.78962269004e-17
3.46548426687e-17
1.33581544164e-17
3.41327472218e-18
6.54492937318e-19
1.00166393713e-19
1.25507457729e-20
1.30986158961e-21
1.15283361475e-22
8.64248700038e-24
5.57201629175e-25
3.12418544135e-26
1.54653361131e-27
6.91384476313e-29
2.88784272044e-30
1.10405463466e-31
1.75166711177e-33
3.1118444888e-17
3.97599127862e-17
3.36763361922e-16
5.9234908739e-16
3.62920545152e-16
1.23607032841e-16
2.83146804879e-17
4.95639533466e-18
6.98490162149e-19
8.15687859866e-20
8.02977978176e-21
6.73898957367e-22
4.86380141868e-23
3.04451131259e-24
1.67000719733e-25
8.14777215884e-27
3.61903018974e-28
1.51870346132e-29
5.95412931609e-31
1.20220005352e-32
1.02511010128e-14
2.60464491676e-14
1.24466980271e-14
8.62890085967e-15
3.89569991435e-15
1.12264288685e-15
2.26735938914e-16
3.54810135672e-17
4.55420451144e-18
4.93570610028e-19
4.58469761992e-20
3.68142606703e-21
2.57127881437e-22
1.57209465605e-23
8.48828183094e-25
4.1040776958e-26
1.81809459139e-27
7.66423368797e-29
3.03619340245e-30
6.77582338465e-32
8.40772027626e-12
3.2912236955e-11
1.65064639353e-12
1.99653858441e-13
4.74995555433e-14
9.81430652425e-15
1.63817825718e-15
2.24370499334e-16
2.61253715531e-17
2.64016262661e-18
2.33523840597e-19
1.81363845071e-20
1.23934517288e-21
7.47703597089e-23
4.00910147943e-24
1.93432467504e-25
8.5810442948e-27
3.62883264077e-28
1.42854663041e-29
3.24528121255e-31
2.27897756527e-09
1.10458492718e-08
3.11796936339e-10
1.06458474373e-11
7.48688800687e-13
7.57719439964e-14
9.17436623092e-15
1.08892706989e-15
1.1800839385e-16
1.14987692131e-17
9.99911389323e-19
7.71988096765e-20
5.27865889992e-21
3.19931598871e-22
1.72739460077e-23
8.40144012717e-25
3.75423775756e-26
1.59265587349e-27
6.16230225205e-29
1.35214522087e-30
2.41767234701e-09
6.86156173982e-08
5.71046323999e-10
1.12218360368e-11
8.98721682261e-13
1.28044719675e-13
1.96796735026e-14
2.79824021303e-15
3.44258932967e-16
3.65956491822e-17
3.38514248365e-18
2.73722931457e-19
1.94119684563e-20
1.21236441645e-21
6.71263281886e-23
3.33307018388e-24
1.51178082517e-25
6.44756212792e-27
2.43920670088e-28
5.01180890591e-30
1.22349649746e-09
1.35346404956e-08
2.53573532255e-10
5.07887033527e-12
6.21346563446e-13
1.41390396338e-13
2.90551652758e-14
5.16091823789e-15
7.56330810055e-16
9.19113460958e-17
9.41842813499e-18
8.24563543383e-19
6.22684165106e-20
4.09025921757e-21
2.35877226304e-22
1.2092627286e-23
5.60768779262e-25
2.41166072322e-26
8.90700672231e-28
1.68877516802e-29
5.85478880741e-10
2.01837350889e-09
2.70536944132e-10
7.64257094981e-12
6.88517345221e-13
1.707896014e-13
4.20480503306e-14
8.80534467303e-15
1.49461613623e-15
2.05604214325e-16
2.33526294792e-17
2.22684002793e-18
1.80555937664e-19
1.25823961293e-20
7.61689197254e-22
4.05746736942e-23
1.93227693271e-24
8.39763801146e-26
3.02738987612e-27
5.26909914451e-29
9.16317746399e-10
1.10498146837e-08
6.04554248392e-09
1.73920199791e-10
8.38125746765e-12
7.74999637069e-13
1.11929555749e-13
1.94750369611e-14
3.24714706359e-15
4.66376062508e-16
5.63558752485e-17
5.73446114706e-18
4.94482198963e-19
3.64225850795e-20
2.31279362319e-21
1.28070208588e-22
6.26763918512e-24
2.75324090858e-25
9.68631685638e-27
1.54713323791e-28
1.59868144802e-09
2.1831754506e-08
5.5748735845e-08
8.73178941483e-10
2.57009342135e-11
1.7580347135e-12
2.48922806373e-13
4.27142973817e-14
7.23248939053e-15
1.07623385995e-15
1.36049352896e-16
1.45426242315e-17
1.31784719728e-18
1.01759813276e-19
6.74117455346e-21
3.8667486074e-22
1.9402866907e-23
8.60237751026e-25
2.9519641172e-26
4.33956680598e-28
1.78176991354e-09
2.46284584189e-08
7.4032707974e-07
7.04441234551e-09
1.19802702429e-10
4.86803201389e-12
5.95576925969e-13
9.80159165707e-14
1.66758851258e-14
2.54580350636e-15
3.32624583121e-16
3.68806215643e-17
3.47258770825e-18
2.78512220028e-19
1.91128047306e-20
1.12972551692e-21
5.79179426819e-23
2.58612183038e-24
8.65422738878e-26
1.17748405372e-27
2.84804880282e-09
5.38672633737e-08
2.29323611213e-06
2.47829458771e-08
5.12184495913e-10
2.04937990598e-11
1.97464286162e-12
2.70477493205e-13
4.20503739702e-14
6.26295315048e-15
8.23426537743e-16
9.32118180765e-17
9.02380789264e-18
7.46128642581e-19
5.27527597713e-20
3.20056334407e-21
1.6722584985e-22
7.51204876656e-24
2.45448847838e-25
3.11569196806e-27
2.16086598748e-09
2.72138354533e-08
6.78679201959e-07
2.930009061e-08
7.8094310786e-10
3.50772785502e-11
3.43171304553e-12
5.15097957796e-13
8.52855229938e-14
1.34478478393e-14
1.86003355273e-15
2.20214698952e-16
2.22074456237e-17
1.90645384286e-18
1.39411401609e-19
8.70199927667e-21
4.64244125086e-22
2.10268921317e-23
6.73436592621e-25
8.05742309221e-27
1.37841110929e-09
1.12605683777e-08
1.53962114215e-07
3.23554003875e-08
6.32567483309e-10
2.6122531719e-11
2.80797780448e-12
6.02236423511e-13
1.2433200762e-13
2.28663621211e-14
3.54810724947e-15
4.58608262688e-16
4.95664855267e-17
4.50222507913e-18
3.44883744408e-19
2.23464410063e-20
1.22562979034e-21
5.63079146381e-23
1.77959786819e-24
2.03093087483e-26
9.10016909765e-10
5.62950728365e-09
5.70710857943e-08
2.8888337174e-07
3.16796610305e-09
5.7291832481e-11
2.82946266924e-12
6.31866087027e-13
1.54225211606e-13
3.30928239942e-14
5.8560912517e-15
8.43181932823e-16
9.95094093086e-17
9.71412635254e-18
7.89421542318e-19
5.36418787776e-20
3.0510166428e-21
1.43302628727e-22
4.50569567501e-24
4.96642054543e-26
6.73792115006e-10
3.80468265238e-09
3.80333930106e-08
5.67053600212e-07
7.06727532331e-09
1.1690488986e-10
4.45959741707e-12
7.49087394215e-13
1.87890003265e-13
4.46792210521e-14
8.85575389346e-15
1.41573293053e-15
1.83031809973e-16
1.93169887201e-17
1.6767904625e-18
1.20335080172e-19
7.14834348929e-21
3.4573582658e-22
1.08979309988e-23
1.17416056968e-25
6.03388893747e-10
3.76704875218e-09
4.26090016718e-08
8.8646108723e-07
1.34245118102e-08
2.94568206117e-10
1.21513236726e-11
1.36180351925e-12
2.76051922451e-13
6.37323636796e-14
1.32715859455e-14
2.28397030917e-15
3.18808675523e-16
3.61625955535e-17
3.34941605028e-18
2.54314701605e-19
1.58353119824e-20
7.92519489487e-22
2.51936331976e-23
2.68146852367e-25
6.87031254646e-10
5.1718199444e-09
6.57866661876e-08
1.49228502604e-06
6.48544514231e-08
1.60504254523e-09
5.97166452928e-11
4.19020869699e-12
5.88781199386e-13
1.09626075981e-13
2.13832805825e-14
3.7270747644e-15
5.44085975518e-16
6.52405842011e-17
6.39532458841e-18
5.12138360905e-19
3.34280522439e-20
1.73499467175e-21
5.58418806211e-23
5.92403352093e-25
6.86303180626e-10
4.59252790458e-09
4.59986695306e-08
7.07064423708e-07
8.03279317769e-08
1.58115998004e-09
5.14040347437e-11
3.3909427708e-12
6.78201733056e-13
1.49216762079e-13
3.14915028078e-14
5.81145041687e-15
8.95647599588e-16
1.13418568871e-16
1.17336687683e-17
9.89068120877e-19
6.76461573581e-20
3.64517531532e-21
1.1910214778e-22
1.2688976198e-24
6.05784265537e-10
3.33773055934e-09
2.55838836773e-08
2.61337556011e-07
2.4814535183e-07
3.61945318991e-09
7.37866284936e-11
3.37324902457e-12
6.82690940378e-13
1.74958799409e-13
4.15741451839e-14
8.40480227524e-15
1.39467454033e-15
1.88241866539e-16
2.06300075773e-17
1.83337353096e-18
1.31544958115e-19
7.37042480839e-21
2.45054798952e-22
2.63917520211e-24
5.23536725827e-10
2.45348596387e-09
1.56267696766e-08
1.24835272511e-07
3.934178544e-07
6.97733926214e-09
1.60624993198e-10
6.45976146072e-12
8.51544338479e-13
2.07247579055e-13
5.24180546754e-14
1.15005307971e-14
2.06120828779e-15
2.97928749931e-16
3.47154909909e-17
3.26120861397e-18
2.45999342542e-19
1.43605138643e-20
4.87013157578e-22
5.33265061883e-24
4.70737919722e-10
1.98127119153e-09
1.13325018994e-08
8.02373751669e-08
4.68286640852e-07
1.96334167177e-08
5.05538379545e-10
1.92021779182e-11
1.55855660123e-12
2.87140548664e-13
6.80620980955e-14
1.54232987324e-14
2.93635292684e-15
4.52497910935e-16
5.60518822006e-17
5.57332643611e-18
4.42774359022e-19
2.698240224e-20
9.35402795541e-22
1.04650162688e-23
4.54387167959e-10
1.8150241121e-09
9.96531455256e-09
6.91095232322e-08
6.26729835222e-07
4.16306520263e-08
8.70530655e-10
2.74426439818e-11
1.67612914762e-12
3.29033548273e-13
8.19929360734e-14
1.96786132537e-14
4.00018341701e-15
6.58353606961e-16
8.68272317465e-17
9.15378926416e-18
7.67366287284e-19
4.89088609004e-20
1.73658421952e-21
1.99332017941e-23
4.67925606068e-10
1.80892062844e-09
9.53419477325e-09
6.25189283986e-08
5.62108037277e-07
7.18906654912e-08
1.33407411765e-09
3.22125225715e-11
1.53135795518e-12
3.18972547837e-13
8.89739752658e-14
2.33942447915e-14
5.15617906095e-15
9.13277016065e-16
1.28803397108e-16
1.44411156317e-17
1.28049628107e-18
8.55302575726e-20
3.11580586696e-21
3.68205981139e-23
4.99139337482e-10
1.85073621412e-09
9.133770538e-09
5.44080444287e-08
4.33643326321e-07
9.82059259397e-08
2.00698645863e-09
4.15770200999e-11
1.61596706032e-12
2.97953987772e-13
9.08021741363e-14
2.62831016336e-14
6.32245913797e-15
1.21112871436e-15
1.8327961588e-16
2.19081665777e-17
2.05896677728e-18
1.44369078173e-19
5.40301872099e-21
6.59153801603e-23
5.41161787426e-10
1.91098630834e-09
8.77452563518e-09
4.76989985598e-08
3.41847563894e-07
2.70136151459e-07
8.0886760659e-09
1.72868994851e-10
5.74537148794e-12
5.23400298687e-13
1.11309545143e-13
3.04604009921e-14
7.64096778613e-15
1.56055689291e-15
2.52251575208e-16
3.21090970789e-17
3.19877229818e-18
2.35566453091e-19
9.06146629777e-21
1.14342899517e-22
5.90385450078e-10
1.97427136871e-09
8.376528426e-09
4.12462585935e-08
2.6043305429e-07
3.28755869001e-07
1.61699540497e-08
3.99157217347e-10
1.35473554619e-11
9.26862631707e-13
1.55861038991e-13
3.76152300503e-14
9.34060236134e-15
1.98461672425e-15
3.38938146085e-16
4.57223390135e-17
4.81858250341e-18
3.72380915176e-19
1.47160189657e-20
1.92269478851e-22
6.46159615015e-10
2.03785600361e-09
7.95310108059e-09
3.5349616309e-08
1.95715364069e-07
3.35747654165e-07
2.51113434242e-08
5.57461127682e-10
1.66000839366e-11
8.84882057981e-13
1.69096500375e-13
4.31500770249e-14
1.11009075011e-14
2.46826893553e-15
4.44373168215e-16
6.33609274319e-17
7.05138009435e-18
5.71163567262e-19
2.31651712543e-20
3.13480738925e-22
7.14152074105e-10
2.12683875198e-09
7.66119393279e-09
3.10421688782e-08
1.53347534372e-07
3.17865610904e-07
3.97773988014e-08
8.59570342787e-10
2.07418912353e-11
8.98874993735e-13
1.64636046281e-13
4.5590891843e-14
1.25597077357e-14
2.96812394769e-15
5.659823113e-16
8.53597691222e-17
1.00269345307e-17
8.5054619917e-19
3.53602182338e-20
4.9555671708e-22
8.03997838593e-10
2.27028920602e-09
7.60191697495e-09
2.84743672944e-08
1.28113687157e-07
2.89711651463e-07
6.05743418071e-08
1.86975339895e-09
4.24608719269e-11
1.48684093545e-12
1.86388600281e-13
4.82763883237e-14
1.38200228504e-14
3.46429483042e-15
7.00771627784e-16
1.11848824176e-16
1.3863471157e-17
1.23043689105e-18
5.23580549614e-20
7.59568901653e-22
9.24227023752e-10
2.4783339589e-09
7.74566049205e-09
2.70608857773e-08
1.12117666118e-07
2.6426217776e-07
7.82274532572e-08
4.01321186949e-09
9.54776096704e-11
3.16068841654e-12
2.66146887994e-13
5.54316720029e-14
1.53054270185e-14
3.97382629027e-15
8.47489560206e-16
1.42862236986e-16
1.86623520175e-17
1.73077803013e-18
7.52483684488e-20
1.12924250554e-21
1.07994422054e-09
2.74234453364e-09
8.00018829594e-09
2.61542938179e-08
1.00075827514e-07
2.45207485102e-07
1.68736063761e-07
8.88524233376e-09
1.98470767869e-10
5.83201104713e-12
3.57626994296e-13
6.4415642132e-14
1.69656832274e-14
4.49398673636e-15
1.00323424337e-15
1.78094331118e-16
2.44807613231e-17
2.36881088676e-18
1.05018860158e-19
1.62905939557e-21
1.2806674511e-09
3.07003708333e-09
8.36901410287e-09
2.56943735322e-08
9.10838971742e-08
2.26112693181e-07
2.52252415088e-07
1.72441872202e-08
3.84674086091e-10
9.96237568854e-12
4.30618615551e-13
7.08053937823e-14
1.83369704235e-14
4.97805898459e-15
1.16136305927e-15
2.16761017098e-16
3.13109944906e-17
3.15613004547e-18
1.4239184618e-19
2.28153036025e-21
1.54214641963e-09
3.48061308295e-09
8.88740390412e-09
2.56980501791e-08
8.44508296128e-08
2.040659962e-07
2.6070600629e-07
2.42371151419e-08
6.15011389191e-10
1.48843694855e-11
5.50156556278e-13
7.72501941149e-14
1.94955953681e-14
5.41433439617e-15
1.31817383702e-15
2.58226713316e-16
3.91261450369e-17
4.09988504195e-18
1.87801110486e-19
3.10609050668e-21
1.8843487661e-09
3.99745737402e-09
9.59611759368e-09
2.62223767248e-08
8.00456828092e-08
1.8414710406e-07
2.41606579901e-07
3.08035967189e-08
2.41766053405e-09
5.08671348994e-11
1.47620526552e-12
1.28835604313e-13
2.41577036722e-14
6.12875081644e-15
1.50007532706e-15
3.04189352366e-16
4.80370327939e-17
5.21092389865e-18
2.41616406966e-19
4.1215735635e-21
2.32730332066e-09
4.64176591995e-09
1.05225608199e-08
2.72509939792e-08
7.73215149674e-08
1.66809009797e-07
2.15674630052e-07
3.78781399245e-08
3.96482175145e-09
9.13043714955e-11
2.71016322504e-12
1.99498879654e-13
3.20034121603e-14
7.28934913553e-15
1.73815932145e-15
3.58067898416e-16
5.83343180574e-17
6.50891968474e-18
3.0431351958e-19
5.34816586355e-21
2.88968827094e-09
5.43450133978e-09
1.16844983246e-08
2.87017755467e-08
7.55119028241e-08
1.50726475147e-07
1.8743725512e-07
4.58730827997e-08
2.69176349603e-09
7.59685439612e-11
2.65733744402e-12
1.90226058938e-13
3.46303178762e-14
8.21050482029e-15
1.9897180991e-15
4.1865102173e-16
7.01179995986e-17
8.00718243946e-18
3.76084040841e-19
6.80166727298e-21
3.59485199942e-09
6.4086643584e-09
1.31199872502e-08
3.05426928807e-08
7.42425449337e-08
1.36130545244e-07
1.61360323498e-07
5.36178202758e-08
3.34414368979e-09
9.84277035393e-11
3.4258286212e-12
1.79920411687e-13
3.34111404569e-14
8.58367930648e-15
2.19378832244e-15
4.80054949477e-16
8.30589804843e-17
9.69392442967e-18
4.56287804262e-19
8.48547753143e-21
4.47923047754e-09
7.6157794114e-09
1.48865719419e-08
3.27585339924e-08
7.32765419083e-08
1.22944388791e-07
1.39696840785e-07
5.69012033376e-08
4.30236963192e-09
1.75394783614e-10
5.81923376771e-12
2.20671724965e-13
3.30003802998e-14
8.63617874121e-15
2.33419805532e-15
5.36986467192e-16
9.66190528877e-17
1.1535058317e-17
5.43575522286e-19
1.03934746254e-20
5.59911998018e-09
9.12617160615e-09
1.70467220501e-08
3.53126214138e-08
7.24220828533e-08
1.11175794445e-07
1.2344561307e-07
6.41666844684e-08
5.90660640056e-09
8.58535110912e-10
2.02319566655e-11
5.58936614558e-13
4.87619270267e-14
9.74012778563e-15
2.52063992553e-15
5.94751245408e-16
1.10827437863e-16
1.35124261931e-17
6.36980612606e-19
1.25266745434e-20
7.03336438607e-09
1.10237684281e-08
1.96493759123e-08
3.81335730674e-08
7.15531778346e-08
1.01217885027e-07
1.1574295916e-07
1.17369981753e-07
1.13021237033e-08
3.82945945853e-09
8.28706575903e-11
1.9700375385e-12
1.17962104975e-13
1.52696688272e-14
3.09794952291e-15
6.84084919178e-16
1.2775739765e-16
1.57132487847e-17
7.38319050279e-19
1.49271750492e-20
8.8778389412e-09
1.33884257593e-08
2.26936978772e-08
4.10539668778e-08
7.0341228694e-08
9.21932621225e-08
1.09278851353e-07
1.45009694175e-07
1.55153144421e-08
1.54777274547e-09
5.958603345e-11
1.90110196111e-12
1.24413097498e-13
1.8383839278e-14
3.70687494686e-15
7.96699539335e-16
1.48269682226e-16
1.82311493902e-17
8.50737260301e-19
1.76713455905e-20
1.12273767191e-08
1.6267515901e-08
2.61039923695e-08
4.3823264489e-08
6.8462987186e-08
8.36926538627e-08
1.02818185306e-07
1.53943483258e-07
1.85103970188e-08
1.04156878669e-09
6.35198273482e-11
2.3326680809e-12
1.2285732424e-13
1.90714746992e-14
4.10211722747e-15
9.05273606599e-16
1.70957555319e-16
2.1047661389e-17
9.75296992385e-19
2.08288527146e-20
1.41408152605e-08
1.96370043821e-08
2.97040407183e-08
4.61121147442e-08
6.56937988117e-08
7.57221285798e-08
9.66740566795e-08
1.54865369834e-07
2.07542509384e-08
1.18300693886e-09
9.26503790389e-11
3.85630534478e-12
1.52370569563e-13
1.99006601389e-14
4.33812891012e-15
9.95060021535e-16
1.93712949549e-16
2.40389389734e-17
1.11004920724e-18
2.44466706247e-20
1.75902333261e-08
2.33534096864e-08
3.3183611939e-08
4.75141885102e-08
6.19257176869e-08
6.84442472277e-08
9.19057559318e-08
1.51521970497e-07
2.23181311073e-08
1.39919105152e-09
1.85000303114e-10
7.49569176969e-12
2.48230459628e-13
2.37819352186e-14
4.6763494957e-15
1.07757531524e-15
2.15866773083e-16
2.70908128038e-17
1.25259506173e-18
2.858572392e-20
2.13958940453e-08
2.70983841716e-08
3.60726401852e-08
4.76020653655e-08
5.72002110738e-08
6.20152789959e-08
8.84786811356e-08
1.45363791607e-07
2.31294290372e-08
1.60125166016e-09
5.03522389658e-10
1.88173844403e-11
5.5535534612e-13
3.74748163597e-14
5.7110310238e-15
1.20679597035e-15
2.40755580238e-16
3.02946885368e-17
1.40561659573e-18
3.34173226228e-20
2.51451149484e-08
3.03295406924e-08
3.77726855515e-08
4.60614946004e-08
5.17643151744e-08
5.66373260953e-08
8.62576481955e-08
1.36896449623e-07
2.31592582485e-08
1.76154340475e-09
8.76490469343e-10
3.80380913091e-11
1.1907653515e-12
6.45408071968e-14
7.86346368814e-15
1.44592965495e-15
2.75010149453e-16
3.40285462145e-17
1.58094542191e-18
3.93320254889e-20
2.81387071115e-08
3.23135433437e-08
3.77158346726e-08
4.28607320679e-08
4.60714333586e-08
5.25356081885e-08
8.50553459934e-08
1.26147363953e-07
2.23600629964e-08
1.82123743309e-09
7.19738395489e-10
4.45709687247e-11
1.82408046019e-12
8.92256761792e-14
1.01805642968e-14
1.75461989417e-15
3.19988606342e-16
3.85729439575e-17
1.79171991699e-18
4.68730993942e-20
2.95158210138e-08
3.23606287793e-08
3.56472657998e-08
3.83730604178e-08
4.07274669987e-08
4.99105849646e-08
8.4505057966e-08
1.11889230392e-07
2.06355461094e-08
1.90798894242e-09
4.54686492988e-10
4.36951218362e-11
2.48043727913e-12
1.15584620018e-13
1.22845020324e-14
2.07405929445e-15
3.72127482117e-16
4.38850448742e-17
2.04296435767e-18
5.65626481288e-20
2.86690553399e-08
3.02337232961e-08
3.18760226868e-08
3.33468892249e-08
3.63383514759e-08
4.85933668163e-08
8.21361774144e-08
7.95373769709e-08
1.65262112524e-08
1.77651101553e-09
2.89567834262e-10
4.67706478457e-11
3.47043834913e-12
1.63302452695e-13
1.49626460281e-14
2.41849347322e-15
4.2967900703e-16
4.98010260867e-17
2.3324944003e-18
6.88548275868e-20
2.57227336136e-08
2.64351099665e-08
2.72828723411e-08
2.87732352735e-08
3.36066858173e-08
4.9082862054e-08
7.97410936528e-08
4.57548865523e-08
1.18782589321e-08
1.48338116582e-09
2.08315195425e-10
6.06769309944e-11
5.24911666417e-12
2.63124126523e-13
1.98678076907e-14
2.89248170991e-15
4.97803290941e-16
5.64088629053e-17
2.6611944735e-18
8.43147147396e-20
2.16092187802e-08
2.20742018351e-08
2.30473848581e-08
2.56828580411e-08
3.33512360535e-08
5.26577746564e-08
8.23514756287e-08
4.0870812655e-08
1.01312652433e-08
1.38149584445e-09
1.86982228293e-10
9.01110818816e-11
8.5028735404e-12
4.71557852854e-13
2.88498325369e-14
3.6290518039e-15
5.86439077619e-16
6.41374912579e-17
3.04064087917e-18
1.0388029107e-19
1.7616775294e-08
1.83809784562e-08
2.02059366487e-08
2.472937762e-08
3.56058884524e-08
5.79993170165e-08
8.36199837096e-08
3.77860329681e-08
8.96311384264e-09
1.33254998063e-09
1.91352069518e-10
1.29292213666e-10
1.36800145004e-11
8.59395681545e-13
4.66723761744e-14
4.91598115671e-15
7.15040293782e-16
7.39299145255e-17
3.49944613926e-18
1.29143836209e-19
1.48560179938e-08
1.62988565911e-08
1.94182023301e-08
2.61246086745e-08
3.98159726714e-08
6.28742351252e-08
7.76562684423e-08
3.25237204236e-08
7.66352529679e-09
1.24864138546e-09
1.99687430265e-10
1.65567181028e-10
2.01425184471e-11
1.48874088735e-12
7.85171502703e-14
7.02972804841e-15
9.0291894589e-16
8.67330457594e-17
4.07307653132e-18
1.62433585186e-19
1.40279296974e-08
1.63588922093e-08
2.09395437668e-08
2.96619623698e-08
4.48898170021e-08
6.4353694294e-08
6.00956982239e-08
2.48392452362e-08
6.03936566607e-09
1.0863053395e-09
1.97824968868e-10
1.85513519577e-10
2.64221309967e-11
2.37734865846e-12
1.32596464362e-13
1.02526568916e-14
1.164774267e-15
1.03092457132e-16
4.79576768031e-18
2.07061479225e-19
1.55126836421e-08
1.88263320309e-08
2.48442558293e-08
3.50858479726e-08
5.00058995416e-08
6.14124292564e-08
3.80870187055e-08
1.64543707615e-08
4.26276492677e-09
8.53689492018e-10
1.80503485245e-10
1.8621889196e-10
3.12058141837e-11
3.49973851676e-12
2.19594379291e-13
1.49344853517e-14
1.50115095086e-15
1.22585213772e-16
5.69333062686e-18
2.6796691748e-19
1.95129138668e-08
2.37794824209e-08
3.09457001869e-08
4.16533710058e-08
5.3537722958e-08
5.35102028975e-08
3.00311491406e-08
1.15458748378e-08
3.06530357863e-09
6.67240723457e-10
1.61294266041e-10
1.74433191859e-10
3.4340144522e-11
4.71662860665e-12
3.45781939397e-13
2.13823710036e-14
1.89892713616e-15
1.4388073099e-16
6.79213215175e-18
3.53181181894e-19
2.59319397001e-08
3.06998324689e-08
3.78018366161e-08
4.60310378515e-08
4.91316521839e-08
3.40836778928e-08
1.94505431747e-08
7.35880016143e-09
2.06783284819e-09
4.94546576095e-10
1.38845327324e-10
1.55874029536e-10
3.59545428785e-11
5.87240897568e-12
5.27676943149e-13
3.07662067072e-14
2.36916069342e-15
1.66411310033e-16
8.16664162184e-18
4.76916194025e-19
3.37717891161e-08
3.76858585847e-08
4.20198834934e-08
4.32652692402e-08
3.44733042131e-08
2.37325406241e-08
1.20447912735e-08
4.48251997525e-09
1.33388749311e-09
3.50197300355e-10
1.15950569007e-10
1.34566828307e-10
3.61843575638e-11
6.8525873062e-12
7.62263845976e-13
4.38415010852e-14
2.91248144575e-15
1.89692566292e-16
9.92903350129e-18
6.65057744762e-19
3.84871490699e-08
3.89839303739e-08
3.71052427913e-08
3.00264924521e-08
2.32799459356e-08
1.44513340914e-08
6.89164384307e-09
2.60473490803e-09
8.28331452185e-10
2.39831213648e-10
9.47062453024e-11
1.15204666463e-10
3.62980243889e-11
7.84088250151e-12
1.06275925572e-12
6.48454466396e-14
3.47237539524e-15
2.07833926779e-16
1.20029892117e-17
9.54979637585e-19
2.83053092859e-34
9.62635585283e-36
1.29173123852e-33
7.56112559247e-35
6.7951934377e-33
5.83843328522e-34
2.87937094474e-32
2.26044651515e-33
1.01283647424e-31
6.76320581104e-33
3.15375264329e-31
1.78824906391e-32
9.03549566322e-31
4.3719191876e-32
2.43265331061e-30
1.00959549204e-31
6.26134468305e-30
2.2375084972e-31
1.5660756384e-29
4.82768523863e-31
3.85642882991e-29
1.02511230258e-30
9.41951799705e-29
2.29400857866e-30
2.28458210079e-28
5.4343441508e-30
5.47997412776e-28
1.28582776935e-29
1.29219303304e-27
3.01002597463e-29
2.980241642e-27
6.92811544755e-29
6.70601112296e-27
1.5624630728e-28
1.47212525876e-26
3.4494691783e-28
3.15578548291e-26
7.45687294011e-28
6.6083733361e-26
1.57936684344e-27
1.35115039812e-25
3.27013518377e-27
2.69473937072e-25
6.60158426635e-27
5.23564525522e-25
1.29750120747e-26
9.89585010387e-25
2.47916938289e-26
1.81721110178e-24
4.59978962086e-26
3.23829436076e-24
8.28777272102e-26
5.59809972006e-24
1.44715106157e-25
9.38548884921e-24
2.44791584237e-25
1.52546910009e-23
4.01013368196e-25
2.40329079402e-23
6.36192573838e-25
3.67103347826e-23
9.77879353594e-25
5.4394345033e-23
1.45728687585e-24
7.82289878335e-23
2.10735815935e-24
1.09357618831e-22
2.96217908878e-24
1.49004704188e-22
4.06027342297e-24
1.98550588001e-22
5.44961382419e-24
2.59348955905e-22
7.19036574025e-24
3.32467061709e-22
9.3665086191e-24
4.18868517656e-22
1.21347362837e-23
5.20212846797e-22
1.5845217035e-23
6.40515205199e-22
2.12999353989e-23
7.86896687505e-22
3.0212407796e-23
9.69591791628e-22
4.60586424011e-23
1.20366356123e-21
7.5683193673e-23
1.51422406367e-21
1.32142812806e-22
1.94643329447e-21
2.39346939888e-22
2.57927284592e-21
4.38893682596e-22
3.53445458998e-21
7.98928094454e-22
4.98013345576e-21
1.42453116953e-21
7.13935709097e-21
2.46945744564e-21
1.03109106123e-20
4.14954019003e-21
1.4904068622e-20
6.76202073017e-21
2.14944287241e-20
1.0720524409e-20
3.0923798433e-20
1.66362598772e-20
4.45040345976e-20
2.54837122058e-20
6.43831935982e-20
3.88742781641e-20
9.4334554969e-20
5.96990263221e-20
1.4090896583e-19
9.28975020359e-20
2.16436227735e-19
1.47117649063e-19
3.67864482531e-19
2.7449292807e-19
)
;

boundaryField
{
    inletfuel
    {
        type            fixedValue;
        value           uniform 0;
    }
    inletair
    {