/*--------------------------------*- C++ -*----------------------------------*\
  =========                 |
  \\      /  F ield         | OpenFOAM: The Open Source CFD Toolbox
   \\    /   O peration     | Website:  https://openfoam.org
    \\  /    A nd           | Version:  dev
     \\/     M anipulation  |
\*---------------------------------------------------------------------------*/
FoamFile
{
    version     2.0;
    format      ascii;
    class       volScalarField;
    location    "0.3";
    object      HO2;
}
// * * * * * * * * * * * * * * * * * * * * * * * * * * * * * * * * * * * * * //

dimensions      [0 0 0 0 0 0 0];

internalField   nonuniform List<scalar> 
1629
(
6.93911740956e-19
6.61988835224e-19
5.38792312314e-19
9.54775413481e-17
1.31366626776e-16
2.27408308884e-16
7.10208877339e-15
1.50719456103e-14
5.49822281509e-14
3.93244393815e-13
1.25689465547e-12
8.80086480229e-12
1.50752568648e-11
5.08314903828e-11
2.91499047163e-10
5.58733993163e-10
2.05215044126e-09
1.06663483582e-08
1.55959279344e-08
5.79945464301e-08
2.70944629209e-07
2.53028452419e-07
8.91716763441e-07
3.82946505472e-06
9.53164281236e-07
2.50212644693e-06
7.50890431242e-06
2.28281757139e-06
4.66601892425e-06
1.073642222e-05
4.27803429643e-06
7.20203534629e-06
1.36734719976e-05
6.85684307192e-06
1.0005926318e-05
1.64969211965e-05
9.92059134409e-06
1.31029657273e-05
1.95550675523e-05
1.33686751204e-05
1.64681346433e-05
2.27609382506e-05
1.70586361044e-05
1.99615420121e-05
2.58337111144e-05
2.0797642404e-05
2.33818172693e-05
2.85318572374e-05
2.442670614e-05
2.66187001956e-05
3.09150898793e-05
2.78412243085e-05
2.96203482613e-05
3.30516050402e-05
3.09448890095e-05
3.23139487126e-05
3.48958048254e-05
3.36104996902e-05
3.45781003736e-05
3.63334177772e-05
3.5678613186e-05
3.62561672407e-05
3.72157415173e-05
3.70356751065e-05
3.72596382021e-05
3.75147777788e-05
3.7663774193e-05
3.75989171276e-05
3.72944258652e-05
3.76091377936e-05
3.73281169001e-05
3.66120245362e-05
3.6938047346e-05
3.65052962007e-05
3.55027767162e-05
3.57213444976e-05
3.51896181718e-05
3.40025588275e-05
3.40370984189e-05
3.34501612928e-05
3.21645406429e-05
3.19757006609e-05
3.13703142488e-05
3.00600016181e-05
2.96324332789e-05
2.90388052201e-05
2.77653378534e-05
2.71083607738e-05
2.65513523903e-05
2.53652323919e-05
2.45145879466e-05
2.40143564248e-05
2.29558558249e-05
2.19709905249e-05
2.15410366661e-05
2.06353131437e-05
1.95942053372e-05
1.92393081874e-05
1.84928355544e-05
1.74757017096e-05
1.71915088768e-05
1.65922107017e-05
1.56541356917e-05
1.5428430154e-05
1.49487839877e-05
1.41013752661e-05
1.3917442839e-05
1.35217220311e-05
1.27311559273e-05
1.25722142361e-05
1.22257480012e-05
1.14261156995e-05
1.12794910116e-05
1.09573663597e-05
1.00815994853e-05
9.94211268712e-06
9.6357404671e-06
8.65893850032e-06
8.52958796513e-06
8.24735236205e-06
7.21564604989e-06
7.10395144352e-06
6.86244120731e-06
5.87254278353e-06
5.78420154098e-06
5.59442820052e-06
4.73438861016e-06
4.66946572222e-06
4.53043062322e-06
3.83900046882e-06
3.79330395414e-06
3.69545809203e-06
3.16424251294e-06
3.13239679011e-06
3.06409429988e-06
2.66000840307e-06
2.63737267138e-06
2.58868669417e-06
2.27254102689e-06
2.25569632552e-06
2.21931259796e-06
1.95540624965e-06
1.94203031378e-06
1.9129920666e-06
1.67385750828e-06
1.66252718338e-06
1.63782253839e-06
1.40601888123e-06
1.39602006381e-06
1.37416926063e-06
1.14254509576e-06
1.13369104103e-06
1.11434023916e-06
8.85896660943e-07
8.7832316087e-07
8.6179361971e-07
6.47669012124e-07
6.41591136512e-07
6.283517864e-07
4.42419484571e-07
4.37919866855e-07
4.2813778314e-07
2.8044582211e-07
2.77396717583e-07
2.70780331485e-07
1.6394960593e-07
1.62073296816e-07
1.58010316228e-07
8.79637508022e-08
8.69386893524e-08
8.47261364216e-08
4.35878727351e-08
4.31237801598e-08
4.21293541464e-08
2.1056204625e-08
2.09334331671e-08
2.06807233734e-08
1.19016146077e-08
1.19886596284e-08
1.21954933226e-08
1.04808558219e-08
1.0750758333e-08
1.13667676254e-08
1.5351593413e-08
1.59256037474e-08
1.72317095166e-08
3.15424697651e-08
3.28214597126e-08
3.5726711814e-08
4.88673597777e-11
1.20198038395e-09
3.77811391911e-08
9.1647337786e-07
1.3167244922e-05
1.80838009079e-05
2.08104108136e-05
2.30473455985e-05
2.52639697609e-05
2.8266811162e-05
3.12115541814e-05
3.34885130833e-05
3.49169013619e-05
3.60093220013e-05
3.69502724234e-05
3.76625279499e-05
3.80322744614e-05
3.79152937241e-05
3.73770085547e-05
3.65247603353e-05
3.53900477439e-05
3.39711000768e-05
3.22788402404e-05
3.03526144315e-05
2.82523445048e-05
2.6038032974e-05
2.37797349559e-05
2.15574472713e-05
1.94474959297e-05
1.75152660078e-05
1.58024193383e-05
1.43068154793e-05
1.29800480263e-05
1.17412349337e-05
1.05022302154e-05
9.20461049371e-06
7.8557080538e-06
6.53246937701e-06
5.33800991074e-06
4.3434759367e-06
3.56385298222e-06
2.97191153199e-06
2.52260879296e-06
2.16952459443e-06
1.87287846935e-06
1.60343490695e-06
1.34364188187e-06
1.08731053218e-06
8.38766105188e-07
6.09974873723e-07
4.14609002798e-07
2.61661124283e-07
1.52432115442e-07
8.1706813645e-08
4.07912789404e-08
2.03680519986e-08
1.25278328269e-08
1.22963954087e-08
1.91927067006e-08
4.0074340139e-08
1.71180817882e-15
8.21658202925e-15
1.9611332998e-14
2.71824688726e-14
2.14307609839e-14
1.09734081116e-14
4.00908382777e-15
1.10738153066e-15
2.42221251652e-16
4.30597691199e-17
6.30170071481e-18
7.66017194856e-19
7.79004340821e-20
6.67336476781e-21
4.85303972722e-22
3.02573511584e-23
1.64046356715e-24
7.86902843243e-26
3.39890171264e-27
7.86188642525e-29
3.22005841895e-14
1.41140524206e-13
3.93132245729e-13
5.88123102805e-13
4.265917258e-13
1.9151436923e-13
6.06050376424e-14
1.45437373394e-14
2.79937063041e-15
4.42425641615e-16
5.81193695547e-17
6.40548068206e-18
5.97016477197e-19
4.74256570829e-20
3.23993226993e-21
1.92588656089e-22
1.01361231507e-23
4.82496945869e-25
2.06840125602e-26
4.77420383608e-28
7.5359857267e-13
1.51562580422e-12
4.76669095468e-12
7.52418734334e-12
4.95918672195e-12
1.96520542428e-12
5.48395139474e-13
1.17462944419e-13
2.04496751387e-14
2.94548899611e-15
3.55415964562e-16
3.62780482282e-17
3.15863125184e-18
2.36543901329e-19
1.53871547087e-20
8.81122223319e-22
4.53120362015e-23
2.1544558182e-24
9.27667897276e-26
2.02430591881e-27
3.09977306445e-11
2.05022985731e-11
5.44021813326e-11
7.75535483726e-11
4.56843633771e-11
1.63716457551e-11
4.16790367244e-12
8.28610479933e-13
1.34862399213e-13
1.82850330368e-14
2.09136602889e-15
2.03712082568e-16
1.70355025575e-17
1.23311363285e-18
7.80444833243e-20
4.38094970417e-21
2.22945731929e-22
1.06425089125e-23
4.70169054476e-25
1.23521499573e-26
1.92618397997e-09
8.36043207517e-10
9.14266913953e-10
8.88544009025e-10
4.31270307869e-10
1.36407276933e-10
3.13899993638e-11
5.75694389732e-12
8.71514505043e-13
1.11133456947e-13
1.20860319211e-14
1.13039812634e-15
9.15468639648e-17
6.46576318537e-18
4.02016375789e-19
2.23198039214e-20
1.13192450852e-21
5.44328018187e-23
2.47311145822e-24
8.13650363304e-26
1.00881794551e-07
9.24387269214e-08
2.59587240371e-08
1.1575142279e-08
4.07004850801e-09
1.09639953143e-09
2.26032717757e-10
3.7660677178e-11
5.26855827366e-12
6.31459217396e-13
6.55053215024e-14
5.91561803367e-15
4.67145741635e-16
3.24278484892e-17
1.99473094451e-18
1.10202308908e-19
5.59247088453e-21
2.70898708268e-22
1.24885444156e-23
4.63625087159e-25
3.42700423304e-06
9.58960246357e-06
1.34175300124e-06
2.19752089243e-07
4.14425286442e-08
8.23777279535e-09
1.45015123942e-09
2.17328611513e-10
2.81891247601e-11
3.2046945754e-12
3.20780219679e-13
2.83051230235e-14
2.20400521557e-15
1.5187395202e-16
9.32011453304e-18
5.15643009057e-19
2.62758801759e-20
1.27973500493e-21
5.89203992376e-23
2.29620761492e-24
5.40063977002e-05
1.40585548839e-05
2.45068269656e-05
4.11087736974e-06
4.25910762575e-07
5.09305119341e-08
7.15278876417e-09
9.79350202975e-10
1.21995980361e-10
1.36301577164e-11
1.35714949409e-12
1.19930775161e-13
9.38938589706e-15
6.52076798974e-16
4.03837900294e-17
2.25568959691e-18
1.15912610905e-19
5.6694253829e-21
2.57866722497e-22
1.00296360263e-23
5.01965116902e-05
4.64523792543e-05
2.61885976244e-05
4.26077702815e-06
6.61396065377e-07
1.03321208166e-07
1.73592263915e-08
2.74266154634e-09
3.78936661963e-10
4.55261797305e-11
4.77828342801e-12
4.39626387079e-13
3.55528086815e-14
2.53687020339e-15
1.60760231071e-16
9.15175898991e-18
4.7674510616e-19
2.34285281482e-20
1.04691533498e-21
3.93540506594e-23
4.65739762225e-05
4.91613003219e-05
2.71922286116e-05
3.94047463459e-06
7.88548854645e-07
1.56857845686e-07
3.1722959405e-08
5.90904783289e-09
9.3739696492e-10
1.25524640797e-10
1.43323743534e-11
1.40885293758e-12
1.20128464594e-13
8.9485634255e-15
5.87277537224e-16
3.43689916901e-17
1.82458792253e-18
9.02406351085e-20
3.95530795203e-21
1.41306457947e-22
4.45897746512e-05
4.82716706171e-05
3.40415753255e-05
5.25071237349e-06
1.1636868486e-06
2.53858580434e-07
5.61465770156e-08
1.16817124705e-08
2.07863213395e-09
3.08408065843e-10
3.84266043721e-11
4.06515649167e-12
3.68671376887e-13
2.89173280418e-14
1.98032533551e-15
1.19857351741e-16
6.51152768321e-18
3.24777454897e-19
1.39731899238e-20
4.71196790042e-22
4.4757136616e-05
7.98896769745e-05
2.16333421433e-05
1.91407000956e-05
3.65604622807e-06
6.17855519703e-07
1.17648481762e-07
2.39838245808e-08
4.48922483991e-09
7.15431305802e-10
9.58882670148e-11
1.08606074618e-11
1.04741251901e-12
8.67076779221e-14
6.21659325009e-15
3.90403256026e-16
2.1765041074e-17
1.09694892187e-18
4.6420314504e-20
1.47603337034e-21
4.8448461535e-05
8.92839989902e-05
1.17598940811e-05
3.99704840792e-05
7.18221622414e-06
1.22055186447e-06
2.28514296818e-07
4.68604153086e-08
9.20596482202e-09
1.5668630664e-09
2.2478942847e-10
2.71778187779e-11
2.78443962348e-12
2.43403139495e-13
1.82965867382e-14
1.19445786432e-15
6.8472068119e-17
3.49415759889e-18
1.45862136608e-19
4.38578720482e-21
5.03437649559e-05
7.67831390807e-05
9.68194783406e-06
8.40730881886e-05
1.15265095083e-05
1.99727702457e-06
3.9248487526e-07
8.39611507571e-08
1.75381615935e-08
3.2080036666e-09
4.94121559044e-10
6.38569554409e-11
6.95654365823e-12
6.42817909136e-13
5.0729185929e-14
3.44811114518e-15
2.03630546332e-16
1.05460458597e-17
4.35894568553e-19
1.24641777089e-20
4.98754385078e-05
6.56985713445e-05
1.27578261306e-05
0.000127596539306
2.10395117665e-05
3.84787011154e-06
7.23247439919e-07
1.50501154361e-07
3.22161220531e-08
6.23717996962e-09
1.02600210408e-09
1.41524907198e-10
1.63956342802e-11
1.6028766496e-12
1.32969422243e-13
9.42526423594e-15
5.74608690917e-16
3.02857003186e-17
1.2449015526e-18
3.41122003846e-20
4.74974377562e-05
5.0864007527e-05
1.65099335018e-05
4.03392987993e-05
2.85210272215e-05
5.58972494864e-06
1.16314888321e-06
2.50828230054e-07
5.57055677815e-08
1.14326308813e-08
2.00976954631e-09
2.96138302733e-10
3.65231784552e-11
3.78258782989e-12
3.30370934189e-13
2.44661978278e-14
1.54344214481e-15
8.30534794893e-17
3.41192922522e-18
9.0390823929e-20
4.54123052409e-05
4.3777325026e-05
1.26670586661e-05
1.24944786942e-05
4.14126591255e-05
7.67030544258e-06
1.64048447756e-06
3.7503444561e-07
8.83292581881e-08
1.94618177898e-08
3.68735595976e-09
5.8363791497e-10
7.69092623544e-11
8.46042452711e-12
7.79729957962e-13
6.04668719219e-14
3.95782265183e-15
2.1819737821e-16
9.00546189527e-18
2.32879629895e-19
4.36547732518e-05
3.86523489779e-05
1.07557214195e-05
5.83920824959e-06
7.40305976999e-05
1.11903290551e-05
2.25527086083e-06
5.29826213184e-07
1.31629965934e-07
3.11347583862e-08
6.37593659324e-09
1.08791041125e-09
1.5363600167e-10
1.79948875426e-11
1.75376759443e-12
1.42731239179e-13
9.71945541102e-15
5.50931873239e-16
2.29634268351e-17
5.85321119887e-19
4.19081255972e-05
3.44669904085e-05
1.06795247706e-05
7.24072049038e-06
0.000118059525625
1.81806765845e-05
3.48910083964e-06
7.90914717373e-07
1.97825092514e-07
4.88536379566e-08
1.0664123452e-08
1.94939422083e-09
2.9428021316e-10
3.66720168849e-11
3.78064035169e-12
3.23283600403e-13
2.29495336656e-14
1.34164763906e-15
5.67496978525e-17
1.43932668453e-18
4.00919102009e-05
3.13706014081e-05
1.13573994761e-05
1.03648918494e-05
0.000157094337084
3.17180942698e-05
6.58970404254e-06
1.39295390571e-06
3.24281471336e-07
7.905045623e-08
1.78150179483e-08
3.42936753409e-09
5.48261564891e-10
7.233212307e-11
7.8697468421e-12
7.0667807114e-13
5.2345886004e-14
3.1634235222e-15
1.36359474147e-16
3.47169261943e-18
3.80341514962e-05
2.83485951731e-05
1.17872042149e-05
6.00820400816e-06
4.1895171033e-05
4.4574037436e-05
9.35064095787e-06
2.16912393694e-06
5.16885437653e-07
1.26987347768e-07
2.94745215029e-08
5.93552058407e-09
9.98968258882e-10
1.38918707943e-10
1.59076642913e-11
1.49829441328e-12
1.15834905558e-13
7.24844076402e-15
3.19529830431e-16
8.23190203619e-18
3.59890485939e-05
2.59860255256e-05
1.22342743202e-05
5.41738498538e-06
1.20509474705e-05
6.84953418491e-05
1.37744971243e-05
3.14395659223e-06
7.69092708523e-07
1.94456470819e-07
4.70757163644e-08
9.97790856696e-09
1.7715186291e-09
2.59675178819e-10
3.12792485763e-11
3.08933720781e-12
2.49404582953e-13
1.61845586198e-14
7.31946849288e-16
1.92199241847e-17
3.40551323456e-05
2.40216487903e-05
1.19759188691e-05
4.98961797297e-06
6.86632185259e-06
0.000102860250463
2.05239622241e-05
4.57770730889e-06
1.11925329983e-06
2.88720373343e-07
7.27521359281e-08
1.62534451553e-08
3.05017231132e-09
4.71916538373e-10
5.98412690928e-11
6.20175606921e-12
5.23335243973e-13
3.52766896644e-14
1.64164996309e-15
4.42290956697e-17
3.21599807141e-05
2.22918780958e-05
1.14487693694e-05
4.74705011651e-06
8.75853202116e-06
0.000127080519255
3.20275145218e-05
7.44987288879e-06
1.75611041024e-06
4.40462153601e-07
1.12092197892e-07
2.60195374543e-08
5.13123614711e-09
8.36190365032e-10
1.11563596377e-10
1.21359539191e-11
1.0714535801e-12
7.51442207701e-14
3.60849239049e-15
1.00346843905e-16
3.02344073579e-05
2.07417746118e-05
1.09388720149e-05
4.34598947984e-06
3.57813761946e-06
3.58270610775e-05
3.57363170387e-05
9.19174021547e-06
2.47582373617e-06
6.47241694276e-07
1.68771812402e-07
4.0719996129e-08
8.42753833236e-09
1.44515747957e-09
2.02812266945e-10
2.31651228586e-11
2.14178091515e-12
1.56527237391e-13
7.7768043934e-15
2.24413530568e-16
2.82581799141e-05
1.93479377615e-05
1.06021555238e-05
4.24868223172e-06
1.75739343793e-06
1.21474109055e-05
4.99556034134e-05
1.09847547562e-05
3.12268160903e-06
8.75383634786e-07
2.39888414592e-07
6.10066405209e-08
1.33575784041e-08
2.42168114012e-09
3.58496746437e-10
4.30790695468e-11
4.17824134976e-12
3.18798489949e-13
1.64304545085e-14
4.94381423366e-16
2.62577987292e-05
1.81167905674e-05
1.04181887755e-05
4.32839255029e-06
1.69038785916e-06
6.52326473506e-06
7.34515747054e-05
1.52664696411e-05
4.00541752099e-06
1.13916678241e-06
3.2538561203e-07
8.74200125431e-08
2.03493640473e-08
3.92004410154e-09
6.14564983408e-10
7.79265977543e-11
7.94762699408e-12
6.344993522e-13
3.40129628102e-14
1.07183763451e-15
2.42710350321e-05
1.70145647305e-05
1.02156599484e-05
4.39716704674e-06
2.04661347744e-06
6.4668705177e-06
9.82819664624e-05
2.42190376054e-05
5.69741863833e-06
1.5365038835e-06
4.40373465201e-07
1.22731601951e-07
3.01611066846e-08
6.16469698142e-09
1.02431096552e-09
1.37255363112e-10
1.4744842357e-11
1.23397905819e-12
6.89641177044e-14
2.28477341673e-15
2.23164788453e-05
1.59573102844e-05
9.85792508538e-06
4.39537709334e-06
2.44690803859e-06
7.5521406158e-06
0.000102055097892
3.58431581251e-05
8.83754278783e-06
2.25536825369e-06
6.20792017533e-07
1.73733095942e-07
4.42815048803e-08
9.52069595475e-09
1.67036842871e-09
2.36232578995e-10
2.67314012325e-11
2.3470335324e-12
1.36976301797e-13
4.78547734859e-15
2.04246638673e-05
1.49261097969e-05
9.37415299187e-06
4.30677977205e-06
2.40408998088e-06
2.88600919898e-06
2.70950278236e-05
3.95112301131e-05
1.03879019821e-05
3.01268760853e-06
8.56602262997e-07
2.43688513546e-07
6.42303153572e-08
1.44653519747e-08
2.67183099432e-09
3.98162963966e-10
4.74293828626e-11
4.36970931287e-12
2.66583494538e-13
9.84383770128e-15
1.86358583629e-05
1.3932386826e-05
8.83552641209e-06
4.19063642924e-06
2.34616598195e-06
1.1849456642e-06
1.02972033325e-05
5.35659627991e-05
1.2002607075e-05
3.67930887057e-06
1.1126513841e-06
3.29006303569e-07
9.05481393196e-08
2.14450940334e-08
4.17637734344e-09
6.56215922384e-10
8.23201167618e-11
7.96226624917e-12
5.08253260475e-13
1.98726778355e-14
1.69813305439e-05
1.29768571798e-05
8.27561756819e-06
4.06322166966e-06
2.30688062325e-06
8.59210003416e-07
6.8779204092e-06
7.01906376832e-05
1.5565527531e-05
4.55748512654e-06
1.40816154919e-06
4.30454298429e-07
1.23833413252e-07
3.09149958436e-08
6.36116541674e-09
1.05546039887e-09
1.39588353954e-10
1.41873881685e-11
9.48552206116e-13
3.93351508897e-14
1.54821782724e-05
1.20552876763e-05
7.70529020756e-06
3.92133752703e-06
2.27218479488e-06
8.8066526914e-07
6.5078031695e-06
7.66668128398e-05
2.34617460811e-05
6.27991443291e-06
1.84865924875e-06
5.63660064777e-07
1.66791682594e-07
4.36187230651e-08
9.46548130142e-09
1.65804447677e-09
2.31250759992e-10
2.47115022924e-11
1.73190504595e-12
7.62717455112e-14
1.41409344631e-05
1.11512638868e-05
7.12318174612e-06
3.75742860398e-06
2.21123457632e-06
7.42206023111e-07
2.89612675949e-06
2.55445147436e-05
2.6512360071e-05
7.80954087917e-06
2.38739328733e-06
7.33307074156e-07
2.21749910153e-07
6.04125646609e-08
1.37885843152e-08
2.54706435699e-09
3.7450469261e-10
4.20803005747e-11
3.09294598847e-12
1.44801378086e-13
1.29265729265e-05
1.02315696432e-05
6.52403539239e-06
3.57015536081e-06
2.13875813329e-06
7.0440046032e-07
1.17694924521e-06
1.05865973414e-05
3.00912208822e-05
8.5320649517e-06
2.86424535863e-06
9.18539426945e-07
2.86881909882e-07
8.16093785727e-08
1.96038332995e-08
3.82064759437e-09
5.92471591765e-10
7.00279984622e-11
5.40081335288e-12
2.69046838127e-13
1.1783470079e-05
9.2759382133e-06
5.91835396307e-06
3.367428427e-06
2.06171346547e-06
7.33391211043e-07
6.9464869237e-07
7.01204162936e-06
3.95485434595e-05
9.23001809818e-06
3.25630549222e-06
1.10404845202e-06
3.59103062408e-07
1.07056769942e-07
2.7122826203e-08
5.58568582949e-09
9.1458571981e-10
1.13810962073e-10
9.21697103981e-12
4.89076142497e-13
1.06478518202e-05
8.28368071397e-06
5.31890586315e-06
3.15452629419e-06
1.97599696996e-06
7.6201469534e-07
5.96945486401e-07
6.34244772681e-06
5.02641293298e-05
1.09673274171e-05
3.71739760369e-06
1.3028213033e-06
4.3917067112e-07
1.36976489431e-07
3.65952328072e-08
7.96761052663e-09
1.37839516432e-09
1.80694230815e-10
1.53755142907e-11
8.69886739643e-13
9.46893614304e-06
7.27313202008e-06
4.73861144124e-06
2.93617732431e-06
1.87968316451e-06
7.69221967917e-07
5.75811050992e-07
5.93823706265e-06
4.91953809772e-05
1.42859346888e-05
4.45349551096e-06
1.54932831305e-06
5.32177665465e-07
1.7228171679e-07
4.83790337455e-08
1.11225722856e-08
2.03231206755e-09
2.80635837984e-10
2.50959520535e-11
1.51494292558e-12
8.23582424764e-06
6.28075098738e-06
4.19219105109e-06
2.71840097349e-06
1.77322406177e-06
7.46089957576e-07
4.13656519521e-07
3.48751144626e-06
1.92550622647e-05
1.6708436202e-05
5.14707870114e-06
1.82750616837e-06
6.38592318262e-07
2.13372377317e-07
6.27683277084e-08
1.52160750843e-08
2.93483199174e-09
4.2679287793e-10
4.01134058912e-11
2.58524191916e-12
6.99208767264e-06
5.35146980249e-06
3.69326561749e-06
2.50686382253e-06
1.66041338584e-06
7.11353940554e-07
2.90213938171e-07
1.93224024906e-06
9.41229530786e-06
2.01100000759e-05
5.71411908073e-06
2.10121636386e-06
7.52564967476e-07
2.59276598717e-07
7.97700631018e-08
2.03771405582e-08
4.14863797287e-09
6.35446071043e-10
6.279072275e-11
4.3236563633e-12
5.81790774363e-06
4.52381032453e-06
3.25003094218e-06
2.30372640583e-06
1.5422212635e-06
6.70151035897e-07
2.23650488962e-07
1.13946547693e-06
6.60243847561e-06
2.50400972939e-05
6.27666138162e-06
2.3582094476e-06
8.69497969787e-07
3.08750614986e-07
9.92121500303e-08
2.66934245178e-08
5.73718801819e-09
9.25844880488e-10
9.62258590637e-11
7.08579390106e-12
4.78927312826e-06
3.82018052703e-06
2.86501949869e-06
2.10883050011e-06
1.41874142736e-06
6.23289883542e-07
1.92445291378e-07
7.82908874478e-07
5.91127982888e-06
3.00042083987e-05
7.04069015955e-06
2.61675782155e-06
9.90540168669e-07
3.61494373786e-07
1.21012621613e-07
3.42512645556e-08
7.76883403681e-09
1.32083707387e-09
1.44431094733e-10
1.13831831312e-11
3.94513100063e-06
3.24375646792e-06
2.53495976159e-06
1.92066684075e-06
1.29025604719e-06
5.70919815977e-07
1.77143074956e-07
6.23570579073e-07
5.50849222832e-06
2.83658257476e-05
8.04082345448e-06
2.90721903875e-06
1.1206769843e-06
4.18100726188e-07
1.45217979486e-07
4.31496485229e-08
1.03194183435e-08
1.84767905247e-09
2.12578878672e-10
1.79432735876e-11
3.28308263279e-06
2.7818885273e-06
2.25130260795e-06
1.73707122235e-06
1.1575889616e-06
5.13375246755e-07
1.63732823414e-07
5.0908685411e-07
4.60829008273e-06
1.7029489549e-05
9.06534362729e-06
3.17252826761e-06
1.25649146684e-06
4.7836972045e-07
1.717233271e-07
5.3446242088e-08
1.34628963031e-08
2.5372419251e-09
3.07140975858e-10
2.77790604051e-11
2.77431577127e-06
2.41214774404e-06
2.00203628038e-06
1.5557277049e-06
1.02207689548e-06
4.51977094856e-07
1.49135671245e-07
4.24206161071e-07
3.77243203017e-06
9.67031602521e-06
1.06461632119e-05
3.39020188842e-06
1.38874797908e-06
5.40626759871e-07
2.0004351033e-07
6.50872058623e-08
1.72534569908e-08
3.42115888466e-09
4.35776141079e-10
4.22547489543e-11
2.3798564568e-06
2.10798311291e-06
1.77432378359e-06
1.37451749086e-06
8.8539766494e-07
3.88943865886e-07
1.3460198977e-07
3.7016264296e-07
3.22012210966e-06
6.75702660737e-06
1.26695767718e-05
3.61161657786e-06
1.51460976916e-06
6.03369053518e-07
2.29542047061e-07
7.79215590417e-08
2.17184434919e-08
4.52937213796e-09
6.07133069725e-10
6.31507395828e-11
2.06078310796e-06
1.84398690513e-06
1.55727276794e-06
1.19239122422e-06
7.4992958227e-07
3.26976588723e-07
1.22094804855e-07
3.37086759994e-07
2.85252886589e-06
5.66108006465e-06
1.4471597422e-05
3.85789000144e-06
1.63192468974e-06
6.65912475608e-07
2.597457404e-07
9.17750611704e-08
2.68671565074e-08
5.89013551288e-09
8.30873085132e-10
9.27505513179e-11
1.78422600824e-06
1.60001185766e-06
1.34365081219e-06
1.01008644445e-06
6.18551583836e-07
2.67860063499e-07
1.10298176414e-07
3.16596154513e-07
2.59291968684e-06
5.15643604629e-06
1.4726406452e-05
4.23936272872e-06
1.74078711136e-06
7.28166769388e-07
2.90393712454e-07
1.06481619444e-07
3.26968713256e-08
7.53038275076e-09
1.11779724433e-09
1.33947579659e-10
1.52676054252e-06
1.36319467051e-06
1.13061948142e-06
8.3053601037e-07
4.9467024753e-07
2.13461233262e-07
9.96159714274e-08
3.04761222154e-07
2.40742744618e-06
4.77135636289e-06
1.24177976988e-05
4.75939365166e-06
1.83585665784e-06
7.89295135374e-07
3.21218714808e-07
1.2184785791e-07
3.91836586096e-08
9.47325517477e-09
1.47957245739e-09
1.90316675355e-10
1.2753154511e-06
1.12830998613e-06
9.19944031762e-07
6.58675638287e-07
3.81844613876e-07
1.65454735052e-07
9.07045098481e-08
3.0000997207e-07
2.27797579496e-06
4.38354638879e-06
9.15963319652e-06
5.40725602848e-06
1.91380499566e-06
8.46994257824e-07
3.51754342574e-07
1.37612945492e-07
4.62678304836e-08
1.17332951134e-08
1.92785880702e-09
2.66089246219e-10
1.02685936987e-06
8.97495228783e-07
7.17604696925e-07
5.00608792779e-07
2.83245127103e-07
1.25093278804e-07
8.42951882435e-08
3.0266326213e-07
2.20472846322e-06
4.05165171231e-06
6.61092400641e-06
6.11150605587e-06
1.99490630442e-06
8.98653733898e-07
3.81445282291e-07
1.53471556623e-07
5.38519255394e-08
1.43129474872e-08
2.47324904323e-09
3.66028643856e-10
7.87449799773e-07
6.79074276464e-07
5.32280383144e-07
3.62330879765e-07
2.01180324158e-07
9.31269864083e-08
8.12870353022e-08
3.14849327226e-07
2.18813691558e-06
3.78416922928e-06
5.23301739171e-06
6.73704852419e-06
2.12616072462e-06
9.44918157155e-07
4.10018588837e-07
1.69150961915e-07
6.1812295049e-08
1.72017125151e-08
3.1243698232e-09
4.95234969701e-10
5.69210794015e-07
4.84458695504e-07
3.72743819756e-07
2.48425276747e-07
1.3700361664e-07
7.05979721251e-08
8.59940242808e-08
3.58174933024e-07
2.22820398609e-06
3.5958297649e-06
4.56215844169e-06
7.09734057675e-06
2.33097415744e-06
9.88097161307e-07
4.37514826732e-07
1.84454534435e-07
7.00083757504e-08
2.03751627363e-08
3.88690800215e-09
6.58901035477e-10
3.84734653504e-07
3.23555880456e-07
2.44967657614e-07
1.60907156086e-07
9.05775513808e-08
5.76424490234e-08
1.00873398207e-07
4.37693684779e-07
2.29771512601e-06
3.46183409415e-06
4.1985189802e-06
7.03271899223e-06
2.59399255229e-06
1.03234474293e-06
4.64301702097e-07
1.99295979044e-07
7.82919394625e-08
2.37934805453e-08
4.76245199913e-09
8.62038990905e-10
2.41610594616e-07
2.0115029014e-07
1.50554569313e-07
9.89756824844e-08
6.04535447422e-08
5.40217808137e-08
1.28482950068e-07
5.5774893815e-07
2.38439230234e-06
3.35440116688e-06
3.94666524123e-06
6.58077019652e-06
2.89045851351e-06
1.08551949505e-06
4.90934577022e-07
2.13706668299e-07
8.65145531693e-08
2.73998205016e-08
5.74749320736e-09
1.10933009092e-09
1.40227868376e-07
1.16037551561e-07
8.68707926532e-08
5.94314326396e-08
4.41906279807e-08
5.95822881921e-08
1.72217134765e-07
7.25909344747e-07
2.48156610698e-06
3.25856447937e-06
3.73703050394e-06
5.95938303458e-06
3.20355933184e-06
1.15877968805e-06
5.18722785995e-07
2.27818471803e-07
9.45153269932e-08
3.11131991176e-08
6.831834646e-09
1.40506998994e-09
7.51529095167e-08
6.25517131678e-08
4.840155407e-08
3.76558988918e-08
3.91505985834e-08
7.51479697069e-08
2.37448503887e-07
9.54926134999e-07
2.58033121243e-06
3.16817567781e-06
3.55094411969e-06
5.34481525581e-06
3.48067687434e-06
1.25962530517e-06
5.48945099979e-07
2.41803329368e-07
1.02118830803e-07
3.48236764754e-08
7.99784900024e-09
1.75344113033e-09
3.79411913612e-08
3.28880223699e-08
2.8475160506e-08
2.88305798068e-08
4.34167694552e-08
1.02970749843e-07
3.30956296399e-07
1.24542117933e-06
2.67104590906e-06
3.08010365368e-06
3.38147807571e-06
4.79776680903e-06
3.66514988979e-06
1.38733564049e-06
5.83217497356e-07
2.55910096967e-07
1.09161884876e-07
3.83988975519e-08
9.2224323308e-09
2.15908950503e-09
1.97829893915e-08
1.94155624873e-08
2.13886617281e-08
3.04333952505e-08
6.02069704325e-08
1.58135198264e-07
5.0062051369e-07
1.57741770776e-06
2.7388973724e-06
2.99001962929e-06
3.22450403599e-06
4.33703753785e-06
3.72466551666e-06
1.53407110552e-06
6.2323168684e-07
2.7044923361e-07
1.15497323104e-07
4.16919818153e-08
1.04803490821e-08
2.62770882984e-09
1.33971685211e-08
1.62986527091e-08
2.36376724332e-08
4.26785355274e-08
9.56342513295e-08
2.55436812812e-07
7.74368680095e-07
1.91258057155e-06
2.77076563863e-06
2.89422101745e-06
3.07658767046e-06
3.95968182902e-06
3.6825800819e-06
1.67580549084e-06
6.69722060513e-07
2.85823731286e-07
1.21034432098e-07
4.45561134244e-08
1.17478519821e-08
3.16614437149e-09
1.45792150452e-08
2.1194726766e-08
3.61479695441e-08
7.23049487006e-08
1.6714922688e-07
4.35650562798e-07
1.15661545203e-06
2.20707920136e-06
2.75961696896e-06
2.78954334196e-06
2.9327476642e-06
3.64638106628e-06
3.56473914026e-06
1.78534503137e-06
7.25780013006e-07
3.02910625226e-07
1.25815637665e-07
4.68692621953e-08
1.30066328844e-08
3.78146138813e-09
2.39805826865e-08
3.76243223906e-08
6.77065120589e-08
1.37738965858e-07
3.12219016353e-07
7.63307597921e-07
1.60002485964e-06
2.41839533107e-06
2.69926232235e-06
2.66805309161e-06
2.7822150036e-06
3.36947556128e-06
3.39357941017e-06
1.85314018179e-06
7.89008781682e-07
3.22694005985e-07
1.30038004461e-07
4.85359127186e-08
1.42385428337e-08
4.48213784863e-09
5.06436079653e-08
8.03419593229e-08
1.44143904163e-07
2.87254426723e-07
6.13123583766e-07
1.2221008631e-06
1.99030257817e-06
2.50517671604e-06
2.5824935566e-06
2.5159749345e-06
2.60823066931e-06
3.09803388175e-06
3.20882944815e-06
1.89909616216e-06
8.56324787715e-07
3.46472740569e-07
1.33337075069e-07
4.93663723786e-08
1.53970325058e-08
5.27152824087e-09
7.21491752475e-26
1.38753338155e-25
9.26180694832e-26
1.57668267918e-25
2.54509767233e-25
3.04852068194e-25
9.35342585854e-25
8.1662317209e-25
3.27063661549e-24
2.10830300184e-24
1.05554710925e-23
5.41962537159e-24
3.19238461955e-23
1.38164321913e-23
9.16715388886e-23
3.48510349323e-23
2.52603913186e-22
8.70175768004e-23
6.74310292786e-22
2.15553139209e-22
1.75734488281e-21
5.31080104557e-22
4.49609160071e-21
1.30379508371e-21
1.13340167919e-20
3.1924887875e-21
2.82182596869e-20
7.79992394008e-21
6.94942549461e-20
1.90156322168e-20
1.69481084317e-19
4.62541284402e-20
4.09671262491e-19
1.12245066685e-19
9.82196886046e-19
2.71716535611e-19
2.33651035402e-18
6.55997822093e-19
5.51354518453e-18
1.57919005841e-18
1.28978970879e-17
3.78474553483e-18
2.98822109658e-17
9.01085476691e-18
6.84729969017e-17
2.12727295478e-17
1.54936361571e-16
4.97046160474e-17
3.45633911691e-16
1.14737115174e-16
7.58925549856e-16
2.61330838629e-16
1.6383266009e-15
5.85938879728e-16
3.47295010877e-15
1.29089207438e-15
7.22033067045e-15
2.78999783788e-15
1.47066617258e-14
5.90757434693e-15
2.93262786443e-14
1.22428736474e-14
5.72241805171e-14
2.48167929266e-14
1.09231862797e-13
4.91839652005e-14
2.03983224788e-13
9.53000653666e-14
3.72864707734e-13
1.80598384126e-13
6.67580629592e-13
3.34908843273e-13
1.17106606757e-12
6.07986495727e-13
2.01280526506e-12
1.08064871992e-12
3.3907708564e-12
1.88112447508e-12
5.60272527341e-12
3.20884085576e-12
9.08759570935e-12
5.36750160044e-12
1.44750851435e-11
8.80801363109e-12
2.26437376838e-11
1.41816766669e-11
3.47924586956e-11
2.24055984021e-11
5.2525740297e-11
3.4740618641e-11
7.79359621009e-11
5.28733439045e-11
1.13654902153e-10
7.89839487668e-11
1.62858331038e-10
1.15783710313e-10
2.29224099627e-10
1.66516918936e-10
3.16862296722e-10
2.34942531574e-10
4.30231860251e-10
3.25306094296e-10
5.74118937176e-10
4.42352199676e-10
7.53668349658e-10
5.91363314695e-10
9.74624071422e-10
7.7838160553e-10
1.24355068509e-09
1.01030429801e-09
1.56738936764e-09
1.29400162085e-09
1.9534831284e-09
1.636489952e-09
2.40748764128e-09
2.04213595528e-09
2.93326398657e-09
2.509633926e-09
3.60685321049e-09
3.16282422991e-09
)
;

boundaryField
{
    inletfuel
    {
        type            fixedValue;
        value           uniform 0;
    }
    inletair
    {
        type            fixedValue;