/*--------------------------------*- C++ -*----------------------------------*\
  =========                 |
  \\      /  F ield         | OpenFOAM: The Open Source CFD Toolbox
   \\    /   O peration     | Website:  https://openfoam.org
    \\  /    A nd           | Version:  dev
     \\/     M anipulation  |
\*---------------------------------------------------------------------------*/
FoamFile
{
    version     2.0;
    format      ascii;
    class       volScalarField;
    location    "0.3";
    object      k;
}
// * * * * * * * * * * * * * * * * * * * * * * * * * * * * * * * * * * * * * //

dimensions      [0 2 -2 0 0 0 0];

internalField   nonuniform List<scalar> 
1629
(
2.97979941695
4.10010858477
4.33438485016
3.2397963023
4.3598164304
5.61903122296
3.34640724544
4.37719864249
6.46889071552
3.40992196108
4.51366805168
9.10823628193
3.49265261135
4.98640486859
12.0957760391
3.67662002052
5.85773500293
14.1766269284
4.06236936632
7.11086821077
15.2830280695
4.72771258726
8.51556728887
15.434329456
5.66233540951
9.74282791042
14.9227682525
6.7353625549
10.5809817428
14.1586778426
7.72556290669
10.9603392268
13.3389345404
8.4271414028
10.9169655655
12.4908793825
8.74145767097
10.5422276937
11.6016079585
8.68574436632
9.94217584496
10.6800110091
8.34451457246
9.2095130417
9.74667536903
7.82038276052
8.41866905531
8.8287341159
7.20514588269
7.62705103439
7.95511597902
6.5668315284
6.87395330536
7.14863935776
5.94858991491
6.18097213587
6.41987849507
5.37386762394
5.55628212743
5.76884305486
4.85310064398
5.00037504293
5.19083661692
4.3890628906
4.51057469307
4.68163791673
3.98001631837
4.08235838934
4.23701864837
3.62166633379
3.70938850576
3.85005168009
3.30890092799
3.38485664758
3.51265720983
3.03665877118
3.10275958072
3.21836392074
2.79991285274
2.85773792068
2.96214794513
2.59371030121
2.64456682211
2.73888250387
2.41343472077
2.45825731167
2.54325549187
2.25502096877
2.29441479601
2.37049624056
2.11501920095
2.14948722921
2.21706690678
1.99038874154
2.02048634256
2.08026854704
1.87842706487
1.90469279133
1.95746193692
1.77695037264
1.7998212261
1.84622419251
1.68431717072
1.70416361222
1.74476922776
1.59920993532
1.61639646742
1.65181677369
1.52049274342
1.53537172892
1.56623463743
1.44721455616
1.46009453982
1.48696520031
1.37860197564
1.38974010567
1.4130966084
1.31404756226
1.32366898268
1.34393751472
1.25307481372
1.26138898772
1.27897587233
1.19532777302
1.20252749416
1.21781431541
1.1405925683
1.1468479382
1.16017565499
1.08877157932
1.0942278242
1.10588995338
1.03983276372
1.04461358271
1.05486198236
0.993771456917
0.997984473085
1.00704020422
0.950602070385
0.954342152212
0.962401681463
0.910376688792
0.913726877385
0.9209633203
0.873199816177
0.876231908609
0.882795562927
0.839231375475
0.842006608227
0.848026072529
0.808674240516
0.81124394512
0.816827256527
0.781742896538
0.784148917191
0.789384310035
0.758615646343
0.760891236047
0.765849021241
0.73938920206
0.741560994103
0.746297827727
0.724065644276
0.72615626975
0.730720651918
0.712593989223
0.714624653452
0.719062419601
0.704967957335
0.70696110451
0.711320980148
0.701378895124
0.703361200152
0.707701363402
0.702373911796
0.704378302703
0.708770678717
0.708961481008
0.711026649857
0.715555673498
0.722732970186
0.724902680758
0.729663802679
0.746323868908
0.748652338587
0.753763254379
0.785713755361
0.78819479663
0.793637880436
2.39704882729
9.58513233745
13.176760657
14.4213137922
14.1702162457
13.421625776
12.703546345
12.0883758888
11.4761764614
10.8024030547
10.0728974722
9.30894879428
8.53554119185
7.77963051142
7.06606231437
6.40797410603
5.80743552575
5.26237455029
4.77328487532
4.34096122245
3.9607741471
3.62517381298
3.32878292118
3.06831238318
2.8396506041
2.63770645808
2.45769669427
2.29647930597
2.15202163699
2.02196748369
1.9038378273
1.79585522307
1.69689397944
1.60591357877
1.52182631194
1.44364503812
1.37063999821
1.30229812841
1.23820882054
1.17805525372
1.12161510919
1.0687461149
1.01936251566
0.973413654262
0.930888770866
0.891830194136
0.856338173852
0.824558718346
0.796651367768
0.772744776857
0.752898086578
0.737091205607
0.725266229604
0.717425568452
0.713787876122
0.714939625958
0.721924533563
0.736366092886
0.760961287008
0.801296227206
0.0134870144254
0.0148453753786
0.0150070006804
0.0149310156453
0.0148967262087
0.0148800495761
0.014871838799
0.0148678342675
0.0148659529073
0.0148651597722
0.0148649213781
0.0148650033213
0.014865366285
0.0148661182173
0.0148674912122
0.0148701185319
0.0148738950171
0.0148845017614
0.0148901608644
0.015728242592
0.0128261077907
0.015446057126
0.0154931258471
0.0151019690455
0.0149031396098
0.0148241659487
0.0147941397604
0.014782141339
0.0147771868894
0.0147752164273
0.0147745403297
0.014774454028
0.014774737321
0.0147754661928
0.014776911065
0.0147799759078
0.0147845771713
0.014799109259
0.0148273051327
0.0162204577811
0.0158102114599
0.0196435068009
0.0170569847378
0.0157046007147
0.0150611017656
0.0148367104657
0.014761814383
0.014734727608
0.0147239829399
0.0147195218074
0.0147176970853
0.0147170609248
0.0147170909188
0.0147177744994
0.0147193929106
0.014723146401
0.014729311221
0.0147489412807
0.0148115950587
0.0165646105783
0.266191489879
0.0267398317599
0.0217464785654
0.0171561000633
0.0154964631698
0.0149357115948
0.0147562540272
0.0146960391217
0.014673322778
0.0146638905055
0.0146598002129
0.0146580868877
0.0146576372971
0.0146582507473
0.0146602167615
0.0146651180716
0.0146745313499
0.0147039444617
0.0148316405844
0.0180449196314
0.650822686825
0.0283379242081
0.0231840364238
0.0186349089917
0.0161654954494
0.0151366412311
0.0147837997519
0.0146675079858
0.0146252081875
0.014608112669
0.014600712253
0.0145974842974
0.0145963732221
0.0145968720835
0.0145992856078
0.0146055529526
0.0146198933008
0.0146618900567
0.0148858529788
0.0200630976438
1.42495230101
0.0429249051347
0.0239714365475
0.020484206374
0.0170234763365
0.0154347719765
0.0148498794533
0.0146510126914
0.0145801013766
0.0145522206259
0.0145403208531
0.0145350869757
0.0145331058124
0.0145334244402
0.0145363635981
0.0145441731157
0.0145651048643
0.0146200191368
0.0149811503949
0.0221879856794
2.39366844877
0.0851175202434
0.0228908917894
0.0203802253588
0.0176063963278
0.0157409333299
0.0149400332727
0.0146445407941
0.0145377771263
0.0144962336878
0.0144786215908
0.0144708469087
0.0144677622805
0.0144678294336
0.0144713723983
0.0144808751737
0.0145098789866
0.0145767370109
0.0150893459977
0.0241339704391
3.38247780608
0.262620930735
0.0365581754727
0.0202657981359
0.017676197489
0.0158754195439
0.0150048774482
0.0146393583365
0.0144969687078
0.0144400485548
0.0144156399806
0.0144047659655
0.0144003176193
0.0144000548012
0.0144042662181
0.0144155876673
0.01445360263
0.0145319984141
0.0151856218597
0.0257378303237
4.41717208405
0.660812664269
0.0377478514643
0.0188803097017
0.0172901027052
0.0158317048358
0.0150231974891
0.014629697056
0.0144571909597
0.0143838442394
0.0143515139786
0.0143369026456
0.0143307771812
0.0143300813794
0.0143349803813
0.0143482288198
0.0143954183159
0.0144863096567
0.0152620839201
0.0269717593597
5.5016463741
1.01997340105
0.0483259358212
0.0169967803715
0.0167513659311
0.0157631601928
0.0150421338646
0.0146272424956
0.0144219089006
0.0143287429717
0.0142866423662
0.0142674253756
0.0142592164411
0.0142579433618
0.0142634795288
0.0142787733686
0.0143345925103
0.0144399028205
0.0153200104704
0.02789474789
6.47298981233
1.40459375493
0.070517784313
0.0160432031862
0.0159294729309
0.0156905635057
0.0151022641816
0.0146487352245
0.0143969418209
0.0142766455343
0.0142216773045
0.014196619226
0.0141857933982
0.0141837460591
0.014189787797
0.0142072701372
0.0142706905111
0.0143925773864
0.0153628307158
0.0285811997187
7.0758254578
1.94407289293
0.164733784814
0.0234592676014
0.0155170886898
0.0154947025284
0.0151290630669
0.0146761653947
0.014380935786
0.0142283877859
0.0141572094494
0.0141248285389
0.0141107287293
0.0141076500712
0.0141139814498
0.0141338062712
0.0142035493953
0.01434387961
0.0153935239888
0.0290920098042
7.27549442851
2.58248631635
0.446504716232
0.0376155219726
0.0155618501711
0.0151019443071
0.0150189844558
0.0146659452194
0.0143623075396
0.0141822485826
0.0140933669625
0.0140523475532
0.0140342610518
0.0140298384961
0.0140361663294
0.0140584676386
0.0141331942701
0.0142932939011
0.0154142645028
0.0294732805613
7.25015582195
3.19521551829
0.888902120653
0.0562812965302
0.0153870262439
0.014516699181
0.0148011499976
0.0146151395844
0.0143353056024
0.0141365422155
0.0140300634908
0.0139793751735
0.0139565941541
0.0139504778031
0.0139564530081
0.0139813154663
0.0140597646004
0.0142403648294
0.0154266209172
0.0297604326077
7.09822506833
3.73184342318
1.26472860402
0.0838414045239
0.0167165093789
0.013852790221
0.0145124717654
0.014543352495
0.0143035494661
0.0140916831211
0.0139674996199
0.0139060797842
0.0138778750124
0.0138696895192
0.0138749364701
0.0139023777403
0.0139834577926
0.0141847518983
0.0154317488997
0.029981063979
6.85636087497
4.13244951118
1.62388729766
0.156272880747
0.0231074189981
0.0136542657275
0.014181664316
0.014429746313
0.0142575916378
0.0140451388992
0.0139053030608
0.0138324998049
0.0137981863895
0.0137875448182
0.013791688119
0.0138216524182
0.0139044877633
0.0141262349422
0.0154305254619
0.0301567817637
6.54532980535
4.34597109742
2.04250244335
0.354779957471
0.0337109226868
0.0137250290567
0.0137843135055
0.0142387094151
0.0141777827615
0.0139895089602
0.0138416186225
0.0137583426334
0.0137175330804
0.013704077806
0.0137067626347
0.0137391203712
0.0138230594083
0.0140646951182
0.0154236548173
0.0303046869396
6.19644126097
4.44495643065
2.46856216387
0.669357460922
0.0492246091203
0.0137767919754
0.0132948205522
0.0139799894533
0.0140644008016
0.0139224419287
0.0137755028649
0.0136835055178
0.0136359784505
0.0136193416227
0.0136202216025
0.013654765307
0.0137393583707
0.0140000914028
0.0154117533299
0.0304385981097
5.82999775425
4.46951011509
2.86247949771
1.01664271663
0.0823202999806
0.0148581785538
0.0127577099232
0.0136629565954
0.0139323103066
0.0138513788251
0.0137097644304
0.0136090975196
0.013553972143
0.013533522323
0.0135321737511
0.0135685959117
0.0136535515209
0.013932440755
0.0153954123229
0.0305699569576
5.45438649334
4.4303024106
3.1522038623
1.29903293335
0.127686168106
0.0197701402739
0.012515579968
0.0132973709677
0.0137890795039
0.0137833583977
0.01364846654
0.0135370874882
0.0134723714738
0.0134469767579
0.0134427963544
0.0134806570831
0.0135657905186
0.0138618025244
0.0153752412167
0.0307084451092
5.07479225329
4.3251928714
3.30608767798
1.56312890057
0.220743177412
0.0319492869228
0.0133457314825
0.0129817295121
0.013609212374
0.0137021315115
0.0135874643149
0.0134672862305
0.0133916023831
0.0133599989991
0.0133522740642
0.0133910105121
0.0134762092148
0.0137882646891
0.015351895884
0.0308623995913
4.70440289262
4.17348714139
3.35305345818
1.87215212422
0.439778552612
0.0495275561803
0.0145431775812
0.0126634508009
0.0133573930499
0.013581859188
0.0135148680184
0.0133960085583
0.0133109260645
0.0132725237801
0.0132606870199
0.0132996926286
0.0133849127119
0.0137119312628
0.015326096661
0.0310390934133
4.35834911232
4.00789051047
3.36714582046
2.16399129887
0.735749233857
0.0759195349756
0.015974472351
0.0122776271037
0.0130341397147
0.0134233269965
0.0134273960362
0.013321043386
0.0132295783954
0.0131843398932
0.0131680167161
0.0132067020824
0.0132919698726
0.0136329136393
0.0152986407695
0.0312450706956
4.03969454655
3.83627253133
3.35767948274
2.39081461256
0.973329224331
0.113977477632
0.0202570477147
0.0121556924355
0.0126772911108
0.0132446180889
0.0133326576037
0.0132446306651
0.0131481331928
0.0130955707152
0.013074284632
0.0131120372653
0.0131974213975
0.0135513292116
0.0152704061891
0.0314859966753
3.74423408271
3.65235234135
3.30369635371
2.52559162284
1.16686698389
0.181495206805
0.029912236398
0.0128888188848
0.0123843956155
0.0130465711283
0.0132266529041
0.0131655986877
0.0130665038005
0.0130062696564
0.0129795154874
0.0130157025237
0.0131012903363
0.0134673042307
0.0152423474751
0.0317664680045
3.47114485548
3.45970966541
3.21051845163
2.58204046483
1.39372580683
0.327368342917
0.0444595146898
0.0141325590598
0.0121411917698
0.0128098603703
0.0130919286531
0.0130750288296
0.0129815121632
0.0129155241289
0.0128834834814
0.0129176434134
0.0130035763218
0.0133809752219
0.0152154895057
0.0320901316234
3.22296848951
3.27096679931
3.10479188903
2.60336852117
1.61219100881
0.533992703218
0.0668614634917
0.0158287068412
0.0118983576746
0.0125267196629
0.0129224642528
0.0129671406172
0.0128900426453
0.0128221766816
0.0127858297314
0.012817771305
0.0129042630441
0.0132924951152
0.0151909230155
0.0324597758741
2.99928449808
3.09128957896
2.99540195971
2.60547083602
1.80044106825
0.759631257946
0.104970887352
0.0189308058788
0.0117370885587
0.0121990027058
0.0127239573703
0.0128455124944
0.0127932169695
0.0127266032262
0.0126866747213
0.0127161726588
0.0128033826414
0.013202058561
0.015169809209
0.0328774424576
2.79661469167
2.91923763973
2.88053118013
2.58658143629
1.93203968369
0.930946584587
0.156475389183
0.0261422593853
0.0121468319387
0.0118884055926
0.0125109350683
0.0127176152389
0.0126948464681
0.0126306404179
0.0125868053254
0.0126132261498
0.0127010811045
0.0131099351363
0.0151534035079
0.0333449887999
2.61098742458
2.75160741592
2.75515765719
2.53668207218
2.00133177254
1.06421233872
0.23262348399
0.0394130204086
0.0136706214971
0.0117137481729
0.0122928876616
0.0125802739803
0.012593797767
0.0125345557035
0.0124867058493
0.0125092963179
0.0125975556424
0.0130164632744
0.0151430673404
0.0338635969415
2.44080261214
2.58966846855
2.62323659811
2.46318348955
2.02597669656
1.2105631916
0.368061494618
0.0585056889014
0.0158770858512
0.0116424139632
0.0120581720584
0.0124213385444
0.0124828029356
0.0124354607565
0.0123856332946
0.012404309656
0.0124928900541
0.0129219887615
0.0151402485829
0.0344339226858
2.28601318972
2.43764662397
2.49443620629
2.38406368311
2.0312916416
1.34525965011
0.534830312261
0.0870260555342
0.0189827712328
0.0116525773752
0.0117990550869
0.0122377661123
0.0123583774285
0.0123310216973
0.0122825873721
0.0122979522337
0.0123870356205
0.0128268229488
0.0151464360941
0.0350562290983
2.14520086623
2.29588506299
2.37023669339
2.3014249651
2.02108102815
1.4472191824
0.683760027346
0.12702001364
0.0246935450663
0.0120284919347
0.0115536577019
0.0120396368492
0.012224162928
0.0122222142574
0.0121777245413
0.0121902595671
0.0122800033543
0.0127312918624
0.0151631409285
0.0357305014062
2.016002453
2.16210872983
2.24761755781
2.21087117906
1.98992564612
1.51146230636
0.802167220327
0.185332491875
0.0347549995789
0.0131667756426
0.0114013301414
0.0118395342603
0.0120821685174
0.0121096308255
0.0120713903592
0.0120814658298
0.0121719180736
0.0126357932899
0.0151919286216
0.0364565985427
1.89688302463
2.03546792827
2.1265930389
2.11381037638
1.94167547535
1.5506095583
0.912925973519
0.275146998936
0.0499232238109
0.0150761246892
0.0113636479876
0.0116393828732
0.0119285320831
0.011990270714
0.0119623303612
0.0119712335862
0.0120627694329
0.0125407348029
0.0152344331658
0.0372343971075
1.78724929799
1.9168937787
2.0104070991
2.01683823937
1.88685183832
1.56884720418
1.01546032706
0.387959816367
0.0729392312321
0.0179832235243
0.0114483935124
0.0114373236527
0.0117602580643
0.0118610388226
0.0118486513293
0.0118587592939
0.0119523208693
0.0124464465584
0.0152922985718
0.0380637574439
1.68640165805
1.80671262333
1.9006981707
1.92286194246
1.82899340966
1.57232861904
1.10096321599
0.510336251101
0.106575410955
0.0225788283363
0.0117484829637
0.0112423982822
0.0115791932216
0.0117221809012
0.0117299696151
0.0117437677035
0.0118404621856
0.0123532749549
0.0153671521349
0.0389443480585
1.59329739613
1.70421100121
1.79705045908
1.83146737457
1.76757388804
1.56246067574
1.16472104766
0.619417723912
0.152987440405
0.0303686350788
0.0125470984174
0.0110985060296
0.0113944638123
0.011576819285
0.0116075389991
0.0116268667242
0.0117275189788
0.0122617946043
0.0154607442369
0.0398757285761
1.50687070209
1.60835386233
1.69844531278
1.74157218071
1.70173961175
1.53981316608
1.2072966871
0.708711014946
0.214625601563
0.0429468427873
0.0141968409313
0.0110734614854
0.0112185157365
0.0114273584121
0.0114820852165
0.011508580819
0.0116139719175
0.0121728220902
0.0155751397824
0.0408578273948
1.42637506417
1.51857749925
1.60469577163
1.6536054349
1.63299727415
1.50758400143
1.23444867347
0.78700118341
0.294123360344
0.0617365845007
0.0169190822077
0.0112121780745
0.0110593982227
0.0112738007423
0.0113525511164
0.0113884127878
0.0114999104341
0.0120871492527
0.015712690138
0.0418912414253
1.35135276441
1.43478371331
1.51637316706
1.56915501007
1.56435055139
1.47025460689
1.24834177594
0.8559389734
0.384139587496
0.0892830470989
0.0211739090766
0.0115729775316
0.0109245084163
0.0111162986142
0.0112176492411
0.0112653867993
0.0113850368084
0.0120053537982
0.0158757711636
0.042976720103
1.28140945925
1.35681044846
1.4337586012
1.48911316997
1.49737907838
1.42993600498
1.25125067208
0.914625074786
0.47605429626
0.128112923741
0.0278282897288
0.0122883203367
0.0108310175608
0.0109575650217
0.0110774923442
0.0111391374881
0.0112692021576
0.0119279740614
0.0160666487116
0.0441143021906
1.21617678127
1.28434488488
1.35672084219
1.41361059328
1.43251286227
1.38751918194
1.24588604946
0.961969662101
0.562424107083
0.178829178315
0.0382365512261
0.013619849775
0.0108182044337
0.0108047734099
0.0109338569746
0.0110101896115
0.0111527488112
0.0118558363882
0.0162877031225
0.0453032007719
1.15534593106
1.21703911085
1.28497600356
1.34252753114
1.36993539513
1.34383834741
1.23441125602
0.998474334287
0.635634793303
0.241296347138
0.0542272722802
0.0159736009635
0.0109517678043
0.0106695416569
0.0107893283439
0.0108793324704
0.011036283699
0.0117901326618
0.0165417719156
0.0465426861561
1.09869468323
1.15462976137
1.21833573044
1.27589354306
1.31007332858
1.29994162642
1.21851375131
1.02551606179
0.699133040724
0.312685025697
0.0776237874562
0.019834736384
0.0113128129381
0.010565384997
0.0106463403539
0.0107469562725
0.0109202211822
0.0117321680092
0.0168321579117
0.0478327561277
1.04608123116
1.09697055411
1.15677639948
1.21396200063
1.2536088273
1.25704077749
1.19985133312
1.04469152908
0.755549110694
0.388480667088
0.110410496738
0.0258967092759
0.012012551109
0.0105085072978
0.0105074913663
0.0106132195789
0.010804698017
0.0116831063012
0.0171622171148
0.0491734931882
0.997408490753
1.04395819415
1.1002907587
1.15693742795
1.20105036262
1.21600272455
1.17969947344
1.05761574587
0.80590243188
0.463733543477
0.153995207719
0.035243750882
0.0132396803348
0.0105244990847
0.01037686669
0.0104787097109
0.0106899036531
0.0116439921329
0.0175348303012
0.0505632917253
0.952615564857
0.995495885046
1.04881303616
1.10486316304
1.15262188892
1.17732421426
1.15901457485
1.06592672535
0.850713383487
0.535198912994
0.208039550816
0.0494054054081
0.015315906794
0.0106580629377
0.0102615667353
0.0103448821978
0.0105763778697
0.0116159348357
0.017952046532
0.0519971961623
0.911690804275
0.951512331966
1.00225762587
1.05770792641
1.1084415746
1.14142763794
1.13875983358
1.07125521156
0.890401701144
0.599760627167
0.270649253681
0.0703073673953
0.0187526863375
0.0109834411308
0.0101729165166
0.0102140957023
0.0104650024865
0.011600137882
0.0184147198478
0.053465784037
0.874680175001
0.911982952739
0.960565238945
1.01544988666
1.06863881748
1.10874411995
1.1197901651
1.07474842845
0.925342596125
0.659086973481
0.337743096089
0.099744145683
0.0242865947376
0.0116156571724
0.0101274682017
0.0100895081749
0.0103568135454
0.0115976591626
0.0189217873138
0.0549539902312
0.841676374151
0.87692556553
0.923710386441
0.978094966861
1.03336356301
1.07968409702
1.10285427829
1.07764884579
0.956428633704
0.714550834202
0.405953112214
0.138731610196
0.0329326232434
0.0127340182977
0.0101496305429
0.00997530644958
0.0102529256235
0.0116090989687
0.0194693169898
0.0564398131517
0.812786635543
0.846371522115
0.891680290024
0.945665590815
1.00278799217
1.05468832709
1.08878806298
1.08136949891
0.984931384
0.766811008553
0.472036111461
0.18710704458
0.0460627962528
0.0146303049802
0.0102780697794
0.00987749016979
0.0101546712237
0.0116344835251
0.0200500491485
0.0578943480272
0.788092776679
0.820337473179
0.864464359929
0.918209609763
0.9771325457
1.03426017876
1.07845699697
1.08713643666
1.01205115867
0.815761782467
0.533490970708
0.243062133027
0.0653464453461
0.0177732569885
0.0105758408903
0.00980496605045
0.0100638146324
0.0116735247665
0.0206547060146
0.0592862071373
0.767619863559
0.798807597608
0.842047129588
0.895787007017
0.956608818745
1.01878493688
1.07230234337
1.09512744518
1.03843902901
0.86147845709
0.591401296006
0.303134767131
0.0923365002989
0.0228856886418
0.0111477123679
0.00977133671775
0.00998283288748
0.0117261701947
0.0212747095929
0.0605884068499
0.751328924255
0.78172609508
0.824388843734
0.87841997111
0.941326352912
1.00842762592
1.0704531521
1.10540730079
1.06457974807
0.904759126955
0.647089295047
0.364017122785
0.128113556979
0.0310637265283
0.0121758521096
0.00979877612127
0.00991554847182
0.0117937916098
0.021907168837
0.0617892137104
0.739158043063
0.769036992707
0.811465000207
0.866146288585
0.931407450375
1.0034154218
1.07332888759
1.11885896358
1.09140191733
0.946645882513
0.70124780244
0.422434979714
0.172788945819
0.0438224714691
0.0139680371743
0.00992299519025
0.00986779913814
0.011880830603
0.0225608150063
0.0629024878414
0.731121161395
0.760787957072
0.803386590392
0.859178846539
0.927215759885
1.004337661
1.08185178493
1.13667558787
1.11992932581
0.9877909465
0.753761243063
0.47891973756
0.223948270822
0.0627417960506
0.0170011516597
0.0101988821584
0.00984796818896
0.0119966591332
0.0232621410622
0.0639765934105
0.72746856046
0.757305327177
0.800604584987
0.858159496218
0.92967260994
1.01249286723
1.09766416312
1.15993998597
1.15055309069
1.0280706026
0.804203470917
0.534058370198
0.2780224341
0.0892717681203
0.0219992323166
0.0107133482869
0.00986804295042
0.0121572147713
0.0240576785985
0.0650908143306
0.728830402171
0.759316039663
0.803983733786
0.864116471544
0.939929742142
1.02892089508
1.12110670676
1.18855650873
1.18318808506
1.06746364446
0.852501783938
0.587865418119
0.330974041568
0.124107797832
0.0299754104305
0.0116035456927
0.00994469444227
0.0123868319997
0.0250148250399
0.0663477482002
0.736287621866
0.767977542555
0.814773627725
0.878371213359
0.959275451272
1.05459089349
1.1521267822
1.22195525837
1.21733635541
1.10580939653
0.89843454772
0.639607097977
0.382154944754
0.165579703185
0.042029244666
0.0130736518647
0.0100992015038
0.0127193391264
0.0262182774729
0.0678566571939
0.751499089396
0.785013977739
0.834764089834
0.902724410539
0.989326549049
1.09043779466
1.19100422694
1.25946979105
1.25205881448
1.1423373655
0.94135417484
0.688538058386
0.431793888377
0.210075675901
0.0598402443524
0.0154876436434
0.0103601561812
0.0131983008553
0.0277612897413
0.0697126182362
0.777221703185
0.81328153759
0.866849629058
0.939845403921
1.03181566575
1.13623901785
1.23533539029
1.2966654963
1.2818170383
1.17149279917
0.97660294903
0.731458948322
0.478482708435
0.254376230248
0.0843622014166
0.0194423086097
0.0107682465751
0.0138777602416
0.0297362773853
0.0719851211489
0.818573382192
0.856734674408
0.912891022123
0.988075611582
1.08001634947
1.17991954296
1.26927723173
1.31919792298
1.29980506029
1.19591219216
1.01447057346
0.781982898244
0.534423783212
0.305903829199
0.118627087899
0.0261888930803
0.0113335045724
0.0147952642338
0.0321721341236
0.0746298151923
0.0199938293041
0.022872797578
0.044764299303
0.0326546572809
0.0581020305079
0.0420756122004
0.0654559475754
0.0448025691851
0.0680051833246
0.0449737079539
0.0676602051915
0.0439005758233
0.0659526704117
0.0421637268452
0.06372079857
0.0400923851569
0.0613473621397
0.0378789596544
0.0590016166209
0.0356393796695
0.0567662811278
0.0334456546108
0.0546862360148
0.0313434705387
0.0527862807934
0.0293623555281
0.0510796229505
0.0275217203027
0.0495727421914
0.0258343901548
0.048267916637
0.0243086487315
0.0471642977921
0.0229494227373
0.0462582121937
0.0217589737435
0.0455431011788
0.0207375658919
0.0450026917991
0.0198868567811
0.0446228637227
0.0191997098801
0.0443954462722
0.0186621748935
0.0443107281684
0.0182618851662
0.0443572064695
0.0179873890194
0.0445205385894
0.0178285872021
0.0447696174544
0.0177812644729
0.0450834629766
0.0178280401765
0.045443373488
0.0179512512272
0.0458337183966
0.0181340585143
0.0462424779903
0.0183613568347
0.0466613919821
0.0186205020134
0.0470857340743
0.0189016782858
0.0475137417385
0.0191979701962
0.0479459010168
0.0195052965059
0.0483842947235
0.0198220395864
0.0488319192412
0.0201481254456
0.0492918949859
0.0204840225757
0.0497669198296
0.0208305377495
0.0502593052425
0.0211893229976
0.0507711735821
0.0215628329786
0.0513042224533
0.0219531803256
0.0518593230158
0.0223610650679
0.0524367022574
0.0227860932798
0.0530364761475
0.0232278749788
0.0536583120627
0.0236860219973
0.0542996971182
0.0241584870939
0.0549539164951
0.0246397749149
0.0556091844841
0.0251207739917
0.0562493952297
0.0255902890265
0.0568568643255
0.0260378361114
0.0574158603989
0.0264563019221
0.0579180109293
0.0268452661599
0.0583671283257
0.0272131349362
0.058784258968
0.0275791916092
0.059207266401
0.0279729020707
0.0596878651047
0.0284319804792
0.0602850066174
0.0289970055119
0.0610528955113
0.0297027879069
0.0620395953205
0.0305731671449
0.0631341753984
0.0314989697107
)
;

boundaryField
{
    inletfuel
    {
        type            turbulentIntensityKineticEnergyInlet;
        intensity       0.05;
        value           uniform 2.34375;
    }
    inletair
    {
        type            turbulentIntensityKineticEnergyInlet;
        intensity       0.05;
        value           uniform 0.015;
    }
    outlet
    {
        type            inletOutlet;
        inletValue      uniform 1;
        value           nonuniform List<scalar> 
26
(
0.785713755361
0.78819479663
0.793637880436
0.801296227206
0.818573382192
0.856734674408
0.912891022123
0.988075611582
1.08001634947
1.17991954296
1.26927723173
1.31919792298
1.29980506029
1.19591219216
1.01447057346
0.781982898244
0.534423783212
0.305903829199
0.118627087899
0.0261888930803
0.0113335045724
0.0147952642338
0.0321721341236
0.0746298151923
0.0631341753984
0.0314989697107
)
;
    }
    axis
    {
        type            empty;
    }
    leftside
    {
        type            kqRWallFunction;
        value           nonuniform List<scalar> 
65
(
0.0199938293041
0.022872797578
0.015728242592
0.0162204577811
0.0165646105783
0.022872797578
0.0326546572809
0.0420756122004
0.0448025691851
0.0449737079539
0.0439005758233
0.0421637268452
0.0400923851569
0.0378789596544
0.0356393796695
0.0334456546108
0.0313434705387
0.0293623555281
0.0275217203027
0.0258343901548
0.0243086487315
0.0229494227373
0.0217589737435
0.0207375658919
0.0198868567811
0.0191997098801
0.0186621748935
0.0182618851662
0.0179873890194
0.0178285872021
0.0177812644729
0.0178280401765
0.0179512512272
0.0181340585143
0.0183613568347
0.0186205020134
0.0189016782858
0.0191979701962
0.0195052965059
0.0198220395864
0.0201481254456
0.0204840225757
0.0208305377495
0.0211893229976
0.0215628329786
0.0219531803256
0.0223610650679
0.0227860932798
0.0232278749788
0.0236860219973
0.0241584870939
0.0246397749149
0.0251207739917
0.0255902890265
0.0260378361114
0.0264563019221
0.0268452661599
0.0272131349362
0.0275791916092
0.0279729020707
0.0284319804792
0.0289970055119
0.0297027879069
0.0305731671449
0.0314989697107
)
;
    }
    burnerwall
    {
        type            kqRWallFunction;
        value           nonuniform List<scalar> 7(4.33438485016 5.61903122296 6.46889071552 0.0134870144254 0.0128261077907 0.0158102114599 2.39704882729);
    }
    front
    {
        type            wedge;
    }
    back
    {
        type            wedge;
    }
}


// ************************************************************************* //
