/*--------------------------------*- C++ -*----------------------------------*\
  =========                 |
  \\      /  F ield         | OpenFOAM: The Open Source CFD Toolbox
   \\    /   O peration     | Website:  https://openfoam.org
    \\  /    A nd           | Version:  dev
     \\/     M anipulation  |
\*---------------------------------------------------------------------------*/
FoamFile
{
    version     2.0;
    format      ascii;
    class       volScalarField;
    location    "0.3";
    object      N2;
}
// * * * * * * * * * * * * * * * * * * * * * * * * * * * * * * * * * * * * * //

dimensions      [0 0 0 0 0 0 0];

internalField   nonuniform List<scalar> 
1629
(
4.87483198253e-09
5.02789609946e-09
4.59889404336e-09
6.26662450376e-07
9.89695035147e-07
1.98754733038e-06
4.09261112881e-05
0.000108878750879
0.000484544361836
0.00177204699703
0.00811888469986
0.0778041768813
0.00645971530216
0.0239895735234
0.138930183224
0.0155405782418
0.048454408451
0.192846136889
0.0308178375258
0.0806450881453
0.234833305739
0.0538163272789
0.117164915705
0.264548065742
0.0846677164706
0.153970788085
0.285023666813
0.121724257919
0.188880666373
0.300806531507
0.161942057349
0.221300114678
0.314979668783
0.202070240261
0.251293451312
0.328796295387
0.239699550295
0.278945741735
0.342449523866
0.273595258285
0.304277255862
0.355909962658
0.303432711162
0.327286980512
0.369093974165
0.329415609254
0.34803798483
0.381908990064
0.352013626099
0.366699117132
0.394269487192
0.371778871644
0.383516366969
0.406132411387
0.38923832584
0.398760130968
0.417491818978
0.404839046779
0.412678756053
0.428357501613
0.418936586413
0.425479702691
0.438737525443
0.431816405548
0.437341902301
0.448654305147
0.443723055765
0.448438653523
0.458173585293
0.454857902509
0.458921875572
0.467369822843
0.46537134946
0.468903459452
0.476289031845
0.475374669879
0.478464538385
0.484957401708
0.48496124676
0.487678051979
0.493410938218
0.494209103776
0.496607938623
0.501688492821
0.503174466999
0.505299896523
0.509816467939
0.511888531101
0.513776182211
0.517799879127
0.520367245868
0.522045664866
0.52563353158
0.528627581043
0.530121443765
0.533323183417
0.536686498516
0.538018001381
0.540878862783
0.544552491539
0.545741060207
0.548300788754
0.552227839416
0.553289931094
0.555582124177
0.559717932821
0.560667840386
0.562721782884
0.567031228555
0.567881701497
0.569723770598
0.574173661627
0.574936121643
0.576590127981
0.581145011198
0.581829526545
0.583316554266
0.58794189077
0.58855723807
0.58989571287
0.594563444987
0.595117413421
0.596323744455
0.601012456627
0.601512040287
0.602601040837
0.607294024822
0.607745488752
0.608730482311
0.613414082954
0.613822963449
0.61471575917
0.619378887107
0.61975000599
0.62056091512
0.625195569409
0.62553313036
0.626271164894
0.630872281984
0.631179980577
0.631853084756
0.63641789754
0.636698993047
0.637314189057
0.641841923413
0.642099279861
0.642662748426
0.647154627267
0.647390739538
0.647907871973
0.652366870641
0.652583888242
0.653059335231
0.657489423436
0.657689176449
0.658126902723
0.662531977187
0.662716009831
0.663119366273
0.667502351228
0.667671969062
0.668043794328
0.672405924
0.672562240357
0.67290495992
0.677245882132
0.677389862811
0.677705584016
0.682025140564
0.68215765672
0.682448282234
0.686749680203
0.686871561205
0.687138903727
0.691432002256
0.691544071472
0.691789930514
0.696090441697
0.696193464373
0.696419510586
0.700746968176
0.700841593614
0.701049242383
0.705424543019
0.705511268437
0.705701601505
0.710045443765
0.710124671679
0.710298564232
0.556419658544
0.499635950049
0.453070271441
0.427315561255
0.413986792461
0.405673957113
0.401432837243
0.400710302708
0.402297889984
0.405174340097
0.409030369041
0.413833182208
0.419534240639
0.425950964198
0.432892858658
0.44020286354
0.447751083702
0.455408540994
0.46307239937
0.470720194868
0.478360040699
0.485973978632
0.493529741446
0.501024296876
0.508470007894
0.515872794071
0.523218257917
0.530484352547
0.537668371854
0.544775351735
0.55179883603
0.558724252786
0.565545273384
0.572262509025
0.578875019957
0.58537520033
0.591752347281
0.598000055004
0.604116719752
0.610103345328
0.615961682366
0.621693821711
0.62730327294
0.632795204595
0.638175906439
0.643452522991
0.648633099364
0.653726407467
0.658741280023
0.663685675883
0.668565970393
0.673386376316
0.678149180872
0.682856719684
0.687514718471
0.692135640261
0.696737432719
0.701341372723
0.705969422257
0.710543269446
0.76799998046
0.767999972356
0.767999984034
0.767999993872
0.767999998225
0.767999999586
0.76799999992
0.767999999987
0.767999999998
0.768
0.768
0.768
0.768
0.768
0.768
0.768
0.768
0.768
0.768
0.768
0.767996998086
0.767998890487
0.767999650987
0.767999908626
0.767999980221
0.767999996363
0.767999999419
0.767999999918
0.76799999999
0.767999999999
0.768
0.768
0.768
0.768
0.768
0.768
0.768
0.768
0.768
0.768
0.767687975584
0.767973180159
0.767996078784
0.767999325027
0.767999887428
0.76799998272
0.767999997574
0.767999999689
0.767999999963
0.767999999996
0.768
0.768
0.768
0.768
0.768
0.768
0.768
0.768
0.768
0.768
0.74582307602
0.767441454514
0.767970485348
0.767996594275
0.767999503878
0.767999927964
0.767999990187
0.767999998754
0.767999999853
0.767999999984
0.767999999999
0.768
0.768
0.768
0.768
0.768
0.768
0.768
0.768
0.768
0.723456253056
0.76656988608
0.767927865659
0.767990965461
0.767998475211
0.767999749271
0.767999962878
0.767999994992
0.767999999393
0.767999999934
0.767999999994
0.767999999999
0.768
0.768
0.768
0.768
0.768
0.768
0.768
0.768
0.692089401881
0.763580018008
0.767806410321
0.76797424248
0.767995126522
0.767999100948
0.767999855092
0.767999979633
0.767999997483
0.767999999726
0.767999999974
0.767999999998
0.768
0.768
0.768
0.768
0.768
0.768
0.768
0.768
0.658911468059
0.75539473206
0.766551784714
0.767822235169
0.76797667896
0.767996326951
0.767999427181
0.767999919938
0.76799999009
0.767999998913
0.767999999895
0.767999999991
0.767999999999
0.768
0.768
0.768
0.768
0.768
0.768
0.768
0.623057182409
0.738844361973
0.763039800303
0.767294264397
0.767915570884
0.767988336567
0.76799819462
0.767999738088
0.767999966333
0.767999996184
0.767999999619
0.767999999966
0.767999999997
0.768
0.768
0.768
0.768
0.768
0.768
0.768
0.588556674874
0.714994349023
0.7614256911
0.767044214813
0.7678598606
0.767977408839
0.767996024433
0.767999345911
0.767999906803
0.767999988562
0.767999998783
0.767999999887
0.767999999991
0.767999999999
0.768
0.768
0.768
0.768
0.768
0.768
0.561822765923
0.697670418902
0.758658245915
0.766921428753
0.767811893979
0.767963985949
0.767992705037
0.767998624474
0.767999778711
0.767999969994
0.76799999654
0.767999999658
0.767999999971
0.767999999998
0.768
0.768
0.768
0.768
0.768
0.768
0.542110644356
0.681456411069
0.753350572884
0.766084351964
0.767646208229
0.767932944812
0.767986177891
0.767997209151
0.767999508928
0.767999927339
0.76799999094
0.76799999904
0.767999999913
0.767999999993
0.768
0.768
0.768
0.768
0.768
0.768
0.526644172682
0.659878984778
0.742265453679
0.763486680971
0.767144209482
0.767848928294
0.767971346647
0.767994254888
0.767998939422
0.767999832459
0.767999977655
0.767999997475
0.767999999757
0.76799999998
0.767999999999
0.768
0.768
0.768
0.768
0.768
0.513823784936
0.632360684384
0.720884553457
0.760463247909
0.766556172614
0.767727716929
0.767947016452
0.767989054394
0.767997857054
0.767999637256
0.767999948207
0.76799999376
0.767999999362
0.767999999944
0.767999999996
0.768
0.768
0.768
0.768
0.768
0.50319266357
0.607071315898
0.696030030835
0.756838011482
0.765962658701
0.76758310701
0.767913181178
0.767981026193
0.767996011763
0.76799927022
0.767999887775
0.767999985527
0.767999998426
0.767999999855
0.767999999989
0.767999999999
0.768
0.768
0.768
0.768
0.495056680497
0.587802427246
0.681170881574
0.751438901163
0.764724706391
0.767294472959
0.767852872967
0.767967664348
0.767992905083
0.767998612335
0.767999770861
0.767999968362
0.767999996336
0.767999999642
0.76799999997
0.767999999998
0.768
0.768
0.768
0.768
0.489554015059
0.573825409268
0.669292444826
0.742488570035
0.76255039093
0.766783901908
0.767747308486
0.767945433628
0.767987797229
0.767997482617
0.767999556122
0.767999934499
0.767999991918
0.767999999163
0.767999999927
0.767999999995
0.768
0.768
0.768
0.768
0.486315704037
0.562945685997
0.651573421669
0.727011326168
0.760166024044
0.76626232352
0.767622483787
0.767915765206
0.767980393078
0.76799570259
0.767999187696
0.767999871566
0.767999983086
0.76799999814
0.767999999829
0.767999999987
0.767999999999
0.768
0.768
0.768
0.484950326
0.554289001435
0.63371634153
0.708760713362
0.757217802693
0.765750392389
0.767490783557
0.767880082163
0.767970510608
0.767993087782
0.767998593154
0.767999760875
0.767999966311
0.76799999606
0.767999999616
0.767999999969
0.767999999998
0.768
0.768
0.768
0.485161388233
0.547730685413
0.618826824251
0.693898684777
0.75259088821
0.76496635069
0.767295029738
0.767828590759
0.767956337841
0.767989204022
0.767997651036
0.767999572156
0.767999935599
0.767999991992
0.767999999176
0.76799999993
0.767999999995
0.768
0.768
0.768
0.486714487636
0.543322961732
0.608476777456
0.684210914266
0.746287946242
0.763192080989
0.766842693228
0.767725993616
0.767931993014
0.767982953906
0.767996121815
0.76799925199
0.767999880484
0.767999984252
0.767999998289
0.767999999847
0.767999999989
0.767999999999
0.768
0.768
0.489337553692
0.540715734181
0.601119528053
0.675135661804
0.737104612414
0.760381910574
0.76608163767
0.767547246438
0.767891204233
0.767972891191
0.76799364778
0.767998715025
0.767999783396
0.767999969875
0.767999996552
0.767999999676
0.767999999975
0.767999999998
0.768
0.768
0.49274781006
0.539345773702
0.594896975403
0.662014586633
0.723495781371
0.757493640408
0.765335166785
0.767341580009
0.76783763271
0.767958641954
0.767989920904
0.767997854176
0.767999618067
0.767999943949
0.767999993246
0.767999999333
0.767999999946
0.767999999997
0.768
0.768
0.496789850221
0.539038744731
0.589847868152
0.649866168886
0.709560818277
0.753926312726
0.764541560861
0.767106439013
0.767770297828
0.767939489815
0.767984580999
0.767996532808
0.767999346762
0.767999898691
0.767999987136
0.767999998666
0.767999999887
0.767999999992
0.768
0.768
0.50137860055
0.539775054526
0.586422173679
0.641445033753
0.700828844207
0.748959125804
0.763081608805
0.766687599136
0.767661357355
0.767910766363
0.767976700262
0.767994518409
0.767998910839
0.767999821712
0.767999976147
0.767999997401
0.76799999977
0.767999999984
0.767999999999
0.768
0.506399263855
0.541374968153
0.584352133813
0.635344964977
0.693800662729
0.742122150016
0.7608645335
0.766028591403
0.7674891696
0.767867182502
0.767965040741
0.767991482918
0.767998224281
0.767999693887
0.76799995688
0.767999995062
0.767999999543
0.767999999967
0.767999999998
0.768
0.511718482165
0.543568894827
0.583062534028
0.629903557603
0.684217593549
0.732456824875
0.758452612603
0.765332180595
0.767287887825
0.767811844408
0.767949416554
0.767987180763
0.767997188905
0.767999488832
0.767999924098
0.767999990855
0.767999999111
0.767999999932
0.767999999997
0.768
0.517263283286
0.546248975322
0.582455675698
0.625344204312
0.674621846319
0.721732768124
0.755499596105
0.764593172943
0.767071011557
0.767747545658
0.767929937993
0.767981425398
0.767995698313
0.767999172165
0.767999870096
0.767999983501
0.767999998314
0.767999999865
0.767999999993
0.768
0.52299956634
0.549379483212
0.582552011736
0.621823449435
0.666574119153
0.712501350657
0.75152122832
0.763626593175
0.766789432718
0.767664054815
0.76790455979
0.767973698046
0.767993585373
0.767998694182
0.767999783338
0.767999970964
0.767999996878
0.767999999738
0.767999999985
0.768
0.528900119355
0.552934133024
0.583389526442
0.61959305384
0.661189306285
0.706514683636
0.746500980504
0.76198743226
0.766303551981
0.767531025004
0.76786745193
0.767962788021
0.767990550205
0.767997976633
0.767999645982
0.767999949994
0.767999994342
0.767999999503
0.767999999971
0.767999999999
0.534917387538
0.556830705955
0.584842422266
0.618374592395
0.657303605504
0.701369290204
0.740335174148
0.759714050086
0.765590336322
0.767332641328
0.767813778385
0.76794739992
0.767986216269
0.767996911891
0.767999431887
0.76799991555
0.767999989953
0.767999999075
0.767999999944
0.767999999998
0.540996685408
0.560961622129
0.586699801404
0.617686372944
0.653737234389
0.694743580225
0.732770960174
0.757251047573
0.764824051919
0.767099990765
0.767746490706
0.767927344506
0.767980319271
0.767995384599
0.767999107081
0.767999860305
0.767999982522
0.767999998312
0.767999999892
0.767999999996
0.547118261431
0.565299310679
0.588931102428
0.617523955275
0.650814965004
0.688466003884
0.72521395724
0.754304763465
0.763953435424
0.766828405144
0.767664522836
0.767902101249
0.767972572114
0.767993263539
0.767998628402
0.767999773995
0.767999970245
0.767999996985
0.767999999799
0.767999999992
0.553277606948
0.569842075869
0.591553183729
0.617967196933
0.648802081477
0.683742467891
0.719489868708
0.750646865458
0.76272052021
0.766442195646
0.767551854155
0.767868592307
0.767962280435
0.767990345309
0.767997935589
0.767999642017
0.767999950412
0.767999994726
0.767999999632
0.767999999984
0.559455688156
0.574553579758
0.594510507399
0.618940939652
0.647588237468
0.680242080011
0.714936563815
0.74616188798
0.761069482495
0.76590849113
0.767396308658
0.767823607232
0.767948602857
0.767986370338
0.767996948892
0.767999444083
0.767999919044
0.767999990966
0.767999999339
0.767999999969
0.565622517295
0.579375795085
0.597703826793
0.620273912293
0.646834725983
0.677122358004
0.710319492243
0.740925823971
0.759164887248
0.765287981825
0.767207644181
0.767767734318
0.767931278929
0.767981142003
0.767995583271
0.767999154649
0.76799987059
0.767999984847
0.767999998839
0.767999999942
0.571761226116
0.584280425596
0.601095452352
0.621924978149
0.646531347501
0.674664879437
0.705830107216
0.735502697768
0.756905148096
0.764573968493
0.766988578498
0.767701475608
0.767910213263
0.767974508311
0.767993752107
0.767998743146
0.767999797636
0.767999975127
0.767999998004
0.767999999895
0.577865796269
0.589258764405
0.604679680306
0.623898821406
0.646699362412
0.672846316627
0.701915389956
0.730497259702
0.754242976785
0.763698609909
0.766718452111
0.76762007941
0.767884374558
0.767966166998
0.767991339072
0.767998170076
0.767999690166
0.767999960026
0.767999996639
0.767999999811
0.583929828175
0.594300719249
0.608446326545
0.626189416514
0.647342836224
0.671698633556
0.698911849837
0.726538618816
0.751132086575
0.762542149885
0.766354530918
0.767513020573
0.767851499636
0.767955567608
0.767988173541
0.767997381689
0.767999534402
0.767999936991
0.767999994451
0.767999999669
0.589939430705
0.599383502633
0.612362843116
0.628751667762
0.648397315966
0.671123397226
0.696654201998
0.72330772073
0.74762823096
0.76108383919
0.765876385796
0.767372597375
0.767809541527
0.767942145635
0.767984062016
0.767996311966
0.767999312245
0.76799990247
0.767999991006
0.767999999428
0.595877066212
0.604478289544
0.616385689444
0.631519973347
0.649758802989
0.670940894451
0.694789360001
0.720311679473
0.743942797534
0.759386842705
0.76529961991
0.767199620177
0.7677580299
0.767925621255
0.767978849478
0.767994892143
0.767999001885
0.767999851761
0.76799998569
0.767999999031
0.601731111784
0.609566632374
0.620489242585
0.634460439484
0.651384459849
0.671111025751
0.693372696213
0.717567480128
0.740391327285
0.757432175495
0.764611692743
0.766990965325
0.767696176745
0.767905747046
0.767972398462
0.767993051213
0.767998577853
0.767999778851
0.767999977655
0.767999998387
0.607495915313
0.614638410162
0.624659940544
0.637557442081
0.653259819759
0.671630287246
0.692425511285
0.715200107068
0.737206370964
0.755234767506
0.763777775938
0.766733965606
0.767620924445
0.767881857578
0.767964502437
0.767990702084
0.767998008862
0.767999675991
0.767999965737
0.767999997364
0.613168718583
0.619686052613
0.628886188471
0.640796534309
0.655369334103
0.672483410747
0.691920597243
0.71333421481
0.734513780247
0.752882364171
0.762755269117
0.76640719439
0.76752661018
0.767852730262
0.767954845289
0.767987731267
0.767997255268
0.767999533084
0.767999948348
0.767999995761
0.618747340345
0.624701458691
0.633154125032
0.644158663715
0.657689539845
0.673643498869
0.691831268036
0.711993860022
0.732387688607
0.750420477842
0.761522607211
0.765990124646
0.767406780819
0.767816909309
0.767943062819
0.767984008638
0.767996269603
0.767999337376
0.767999923355
0.767999993291
0.624229821888
0.629676055253
0.637448024755
0.647620465252
0.660188003811
0.675065094695
0.692088559161
0.711052434947
0.730582202369
0.748025265406
0.760109221095
0.765474131601
0.76725663875
0.767773183482
0.767928847495
0.76797941073
0.767995000419
0.76799907368
0.767999888013
0.767999989542
0.629616097123
0.634603976313
0.641755733611
0.651163026421
0.662837638993
0.67670961507
0.692636443989
0.710439347893
0.729041943841
0.745836391211
0.758552604744
0.764850108835
0.767070667496
0.767720230989
0.767911908895
0.767973822638
0.767993394063
0.767998724576
0.767999838898
0.767999983947
0.634908362514
0.639482653554
0.646069580617
0.654773410447
0.665619813809
0.678552352357
0.693446121561
0.710141134876
0.727790018771
0.74393280007
0.756906259422
0.764103455351
0.76683936099
0.767655781076
0.767891806162
0.767967110344
0.767991390898
0.767998269833
0.76799977176
0.767999975726
0.640110308359
0.644311426143
0.650384105498
0.658441259251
0.668519455768
0.680574550098
0.694498723915
0.710149895615
0.726850032284
0.742343738883
0.755247391066
0.763222710901
0.766548912892
0.767576154722
0.767867831443
0.767959097099
0.767988920792
0.76799768548
0.767999681291
0.767999963828
0.64522667551
0.649090795018
0.654694992393
0.662157409755
0.671523156309
0.682760081453
0.69577837289
0.710455822515
0.726234826971
0.741097661601
0.753631250295
0.762209084841
0.766183518673
0.767476314898
0.767839003359
0.767949564748
0.767985903605
0.767996943645
0.767999560964
0.767999946846
0.650263220681
0.653822346153
0.658998979929
0.665913703348
0.674618424148
0.685093017151
0.697266253644
0.711035966237
0.725908063475
0.740103150736
0.752156851021
0.761091622902
0.765729657321
0.767350103127
0.767804087763
0.767938264775
0.767982253363
0.76799601337
0.76799940304
0.767999922962
0.655226543418
0.658508648532
0.663293871094
0.669703042409
0.677793514838
0.68755683101
0.698939109725
0.711853363836
0.725843084213
0.739332026779
0.750875303892
0.759923241832
0.765178379012
0.767189798893
0.767761456284
0.767924899285
0.767977878572
0.767994861275
0.767999198648
0.767999889894
0.660123455125
0.663152736535
0.667578244991
0.673519497473
0.681038318369
0.690137359394
0.700778417411
0.71288552559
0.726027850034
0.738790095732
0.74982403756
0.758754205154
0.764526392694
0.766985303857
0.767708765526
0.767909063721
0.767972675768
0.767993451298
0.767998937811
0.767999844862
0.664960112936
0.667757407111
0.671851027505
0.677358263453
0.684344860045
0.692824094485
0.702771766875
0.714116031796
0.726448349098
0.738481395811
0.749009302436
0.757631683558
0.763781131267
0.76672454782
0.767642641655
0.767890183721
0.767966522487
0.767991744432
0.767998609506
0.767999784541
0.669741400543
0.672324769176
0.676111183435
0.681215293962
0.68770637891
0.695607477007
0.704905647728
0.715523667528
0.727069509455
0.738377713161
0.748375080077
0.756622173443
0.762967717223
0.766394852374
0.767558154881
0.767867412011
0.767959266391
0.767989698554
0.767998201774
0.767999705012
0.674470322744
0.676855527719
0.680356692384
0.685085635728
0.691114586737
0.698474689381
0.707160408182
0.717083658332
0.727861965581
0.738452888682
0.747901901066
0.755768743697
0.762117717174
0.765984321786
0.767447915644
0.767839448958
0.76795070592
0.767987267772
0.767997701722
0.76799960162
0.679148225247
0.681349178773
0.684584738345
0.688963802864
0.694560873532
0.70141332706
0.709519572178
0.718778069106
0.728812827948
0.73869601736
0.747591722432
0.755096641589
0.761259873399
0.765487435201
0.767302092135
0.767804453941
0.767940589811
0.767984405854
0.767997095821
0.767999468721
0.683776832649
0.685806232365
0.68879429144
0.692846968284
0.698040331925
0.704416163997
0.711973810876
0.720595556128
0.729911355114
0.73909637641
0.747434032114
0.754562037919
0.760457214073
0.764915658073
0.76710965735
0.767759959585
0.767928618312
0.767981071505
0.767996369997
0.767999299157
0.688361597905
0.690231619602
0.692989585369
0.696738475935
0.701555188328
0.707484032487
0.714521676719
0.722532721547
0.731152783508
0.739646112813
0.747419682183
0.754149900796
0.759761255768
0.764287782445
0.766859243208
0.767702499695
0.767914400386
0.767977227304
0.767995508086
0.767999083296
0.692914936162
0.694637672733
0.69718276853
0.700650054699
0.705116158859
0.710624705644
0.717158993941
0.724570860244
0.732510287163
0.740326324522
0.74753699921
0.75385886083
0.759200165398
0.763626629605
0.766542278244
0.767627326435
0.767897414985
0.767972838656
0.767994488777
0.767998807587
0.697454316126
0.699040767082
0.701388274179
0.704592738343
0.708728518238
0.713834871029
0.719878274797
0.7266989469
0.733960432812
0.741115898318
0.747770161551
0.753678057994
0.758741952738
0.762984650629
0.766160048722
0.76752824177
0.767876937279
0.767967868856
0.767993280884
0.767998452486
0.702000304218
0.703459751507
0.705622253174
0.708578698079
0.712398400065
0.717109047584
0.722661900791
0.72889499416
0.735485633492
0.741995740809
0.748102725765
0.753594645729
0.758370412713
0.762416215035
0.765707534884
0.767395489305
0.767851756621
0.767962256628
0.767991835821
0.767997989997
0.706573657292
0.707912811538
0.709898790639
0.712615623758
0.716123538177
0.720435323638
0.725490214737
0.731134272801
0.73706113857
0.742941459565
0.748512476176
0.753590061334
0.758071810453
0.761926108232
0.765201162248
0.767216221308
0.76781992034
0.767955916053
0.767990083686
0.767997373693
0.711095350613
0.712319536098
0.714134435504
0.716612971347
0.719799867553
0.723692630415
0.728222892149
0.733239924646
0.738505626112
0.743778929719
0.748846423089
0.753543799785
0.757763787959
0.761458465009
0.764665390498
0.766978015843
0.76778143997
0.767949139009
0.767987985949
0.76799653709
0.768
0.768
0.768
0.768
0.768
0.768
0.768
0.768
0.768
0.768
0.768
0.768
0.768
0.768
0.768
0.768
0.768
0.768
0.768
0.768
0.768
0.768
0.768
0.768
0.768
0.768
0.768
0.768
0.768
0.768
0.768
0.768
0.768
0.768
0.768
0.768
0.768
0.768
0.768
0.768
0.768
0.768
0.768
0.768
0.768
0.768
0.768
0.768
0.768
0.768
0.768
0.768
0.768
0.768
0.767999999999
0.768
0.767999999998
0.767999999999
0.767999999997
0.767999999999
0.767999999994
0.767999999997
0.767999999988
0.767999999995
0.767999999977
0.767999999989
0.767999999956
0.76799999998
0.767999999919
0.767999999961
0.767999999853
0.767999999927
0.76799999974
0.767999999866
0.767999999547
0.767999999758
0.767999999225
0.767999999573
0.767999998696
0.76799999926
0.767999997843
0.76799999874
0.767999996488
0.767999997889
0.767999994372
0.767999996523
0.767999991121
0.767999994369
0.767999986209
0.767999991029
0.767999978901
0.767999985943
0.767999968205
0.767999978333
0.767999952821
0.767999967157
0.767999931083
0.76799995105
0.767999900906
0.767999928258
0.767999859695
0.767999896545
0.767999804199
0.767999853041
0.767999730266
0.767999794005
0.767999632374
0.767999714375
0.767999502943
0.767999607167
0.76799933169
0.767999463162
0.767999103975
0.767999269251
0.767998800593
0.767999009372
0.767998391018
0.767998661521
0.767997729818
0.767998026664
)
;

boundaryField
{
    inletfuel
    {
        type            fixedValue;
        value           uniform 0;
    }
    inletair
    {
        type            fixedValue;
        value           uniform 0.768;
    }
    outlet
    {
        type            zeroGradient;
    }
    axis
    {
        type            empty;
    }
    leftside
    {
        type            zeroGradient;
    }
    burnerwall
    {
        type            zeroGradient;
    }
    front
    {
        type            wedge;
    }
    back
    {
        type            wedge;
    }
}


// ************************************************************************* //
