/*--------------------------------*- C++ -*----------------------------------*\
  =========                 |
  \\      /  F ield         | OpenFOAM: The Open Source CFD Toolbox
   \\    /   O peration     | Website:  https://openfoam.org
    \\  /    A nd           | Version:  dev
     \\/     M anipulation  |
\*---------------------------------------------------------------------------*/
FoamFile
{
    version     2.0;
    format      ascii;
    class       volScalarField;
    location    "0.3";
    object      nut;
}
// * * * * * * * * * * * * * * * * * * * * * * * * * * * * * * * * * * * * * //

dimensions      [0 2 -1 0 0 0 0];

internalField   nonuniform List<scalar> 
1629
(
0.000648649239799
0.000421032817779
0.000136232732774
0.00050368250134
0.000353441535916
0.000155113092415
0.000453570117252
0.000320098422841
0.000166430393294
0.000411822021675
0.000293096323722
0.000230095688457
0.000376040537665
0.000286538251548
0.000324150532577
0.000353377748666
0.000310934932081
0.000421435472709
0.000351838878859
0.000366099055368
0.000511930679948
0.000377959426646
0.000442629590302
0.000585164206334
0.000432592477212
0.000526275761914
0.000641361106466
0.000509117267287
0.000606459375561
0.000689508393253
0.000594988586206
0.000677587333081
0.000734995772474
0.000676873113298
0.000737600131423
0.000777669802013
0.000745665247519
0.000786177898644
0.000815192598655
0.000797991809201
0.000823893005188
0.000846175871919
0.000834633095848
0.000851633389391
0.000870157123263
0.000858336949031
0.000870682589285
0.000887557433353
0.000872556154359
0.000882931203397
0.000899660833721
0.000880624919228
0.000890587444923
0.000908256316523
0.00088527265909
0.000895618389828
0.000914888318995
0.000888445181679
0.000899453069297
0.00092049536387
0.000891424029991
0.000903037443161
0.000925590677281
0.000895103594352
0.000907159785332
0.000930839147499
0.000900213191853
0.000912597331644
0.000937156894169
0.000907269687752
0.000919877262124
0.000945098595329
0.000916570491828
0.000929232794009
0.000954752625766
0.000928319452953
0.000940844649101
0.00096624291227
0.000942686258337
0.000954938029758
0.000979915189881
0.000959734374797
0.000971620477484
0.000995974875863
0.000979339586847
0.000990761946314
0.00101428172378
0.00100118369941
0.00101201638298
0.00103442735994
0.00102489252803
0.00103502562409
0.00105608383063
0.00105011783145
0.00105950705543
0.00107910764344
0.0010764681222
0.00108511165463
0.00110323867652
0.00110350045267
0.00111140053465
0.00112804276605
0.00113085901088
0.00113802604496
0.0011531865433
0.00115834562054
0.00116481861952
0.0011785624853
0.00118585319806
0.00119169123945
0.00120412961864
0.0012132675489
0.00121852818193
0.00122977179377
0.00124038792622
0.00124511689918
0.00125525340392
0.00126697581132
0.00127121444511
0.00128032361362
0.00129283336373
0.0012966289831
0.0013048053055
0.00131784815613
0.00132125388158
0.00132860628647
0.00134203589263
0.0013451050643
0.00135174415452
0.00136552960826
0.00136831070126
0.00137433746173
0.00138854452894
0.00139108003155
0.00139658337052
0.00141134764868
0.0014136761275
0.0014187373682
0.00143424233138
0.00143640000317
0.00144109608012
0.001457592645
0.00145961318929
0.00146401610079
0.00148186260587
0.00148377666128
0.00148795198786
0.00150765183417
0.00150948620094
0.00151349138477
0.00153569990798
0.00153747672341
0.00154135924542
0.00156684888536
0.00156858485409
0.00157238059855
0.00160197270014
0.00160367929116
0.00160741303774
0.00164189769161
0.00164358263586
0.00164727128615
0.00168734655115
0.00168901559768
0.001692671842
0.00173896380207
0.00174062222485
0.00174425781851
0.00179747713709
0.00179913239273
0.00180276383775
0.00186404942487
0.00186571522982
0.00186937288474
0.00194069463196
0.00194239250937
0.0019461238815
0.00203056753884
0.00203232272162
0.0020361833112
0.00213816550556
0.00213999936426
0.00214403656574
0.00226999738825
0.00227192081455
0.00227615859871
0.00243402452695
0.00243590928914
0.00244006553459
0.000368089743913
0.000340127820449
0.000469554199147
0.000552791463961
0.00059954866511
0.000633066805773
0.000669903705631
0.000713518075091
0.000758762401595
0.000799826407788
0.000834897764396
0.000863696599316
0.00088652283968
0.000904219123053
0.000918332636301
0.000930167221457
0.000940321930193
0.000948985678704
0.000956860704489
0.000965217161485
0.00097473194045
0.000985337596661
0.000997122655102
0.00101064025047
0.00102624563624
0.00104379175998
0.00106278657347
0.00108294344674
0.00110430807147
0.00112673107437
0.0011497747829
0.0011731222455
0.00119675302429
0.0012206918707
0.00124482659478
0.00126889496481
0.00129263933765
0.00131590693355
0.00133862876041
0.00136082723736
0.00138260993934
0.00140415964133
0.00142572359237
0.00144759406774
0.00147012196717
0.00149375365668
0.00151906605197
0.00154677082035
0.00157767753425
0.00161262910023
0.00165242999815
0.00169779114568
0.00174935447115
0.00180786124108
0.00187451414728
0.00195137617023
0.00204162248226
0.00214973404569
0.00228214526208
0.00244594298367
2.16560879518e-05
0.000193542390586
0.000310918729604
0.000332543533485
0.000335258603761
0.000335410836627
0.000335336980595
0.000335285487635
0.000335260122236
0.000335249339026
0.000335246008042
0.000335246910419
0.000335251423637
0.000335260847038
0.00033527813172
0.000335310904453
0.000335355742275
0.00033532250113
0.00032637754055
9.65861388949e-05
2.05944020769e-05
0.00016760616548
0.00029839462458
0.000331777188968
0.000335900216668
0.000335692640931
0.000335356136513
0.000335191323769
0.000335120651212
0.000335092028346
0.000335081777389
0.000335079933062
0.000335083260104
0.000335092537402
0.00033511125925
0.000335150339878
0.00033520340352
0.000335049930996
0.000320705582628
9.80858272067e-05
2.5377454117e-05
0.000145301333152
0.000282518297367
0.000333189189852
0.000337975876448
0.000336542512031
0.000335616992883
0.000335231599737
0.000335075480839
0.000335010359664
0.000334983352393
0.000334973550016
0.000334973328684
0.00033498214544
0.000335003668036
0.000335052540763
0.000335124250765
0.000334902593528
0.000317402313615
9.91209191827e-05
5.32471825517e-05
2.89022835324e-05
0.000196571799901
0.000321847134237
0.000341173660242
0.000338439902275
0.000336289379846
0.000335435402251
0.000335106166039
0.000334970077269
0.000334911126319
0.00033488630807
0.000334879558402
0.000334887620804
0.00033491429726
0.000334979026683
0.000335089824145
0.000334821198167
0.000314060249748
0.00010515981795
4.76626507302e-05
8.66466251054e-06
0.000119424603284
0.000291287571168
0.000341679412927
0.000341099538427
0.00033742157943
0.00033581249408
0.00033519902017
0.000334952046937
0.000334845843409
0.000334799685879
0.000334783843275
0.000334790612177
0.000334823974752
0.000334908045641
0.000335078514858
0.000334755975037
0.000310462229669
0.00011179377558
9.83432490795e-05
6.87238258812e-06
6.41992576925e-05
0.000235133189821
0.00032843961086
0.000342195642952
0.000338827597498
0.000336374856802
0.00033536270894
0.000334958286904
0.000334786912502
0.000334712134279
0.000334684214333
0.000334688896107
0.000334730269412
0.000334836892559
0.000335086877263
0.000334663658611
0.000306556136768
0.000117823070786
0.000172495611232
1.20734646783e-05
1.21912929379e-05
7.17707219476e-05
0.0002323881361
0.000327001624892
0.000338765746139
0.000336968493965
0.000335588872262
0.000334990338702
0.000334735222246
0.000334623693323
0.000334580293445
0.000334582021947
0.00033463278456
0.000334765084745
0.000335111121746
0.000334512634249
0.000302069465129
0.000122818244681
0.000249922116288
3.12562401505e-05
7.83706439434e-06
2.0395756871e-05
0.00010953870784
0.000274477372628
0.00033257330953
0.000337036831925
0.000335826615273
0.000335046108698
0.000334691939284
0.000334535015841
0.000334472272378
0.000334470071223
0.000334531463463
0.000334692371763
0.000335142909375
0.000334289219887
0.000296911713874
0.000126749808927
0.000340276502229
8.05277839377e-05
8.53625831547e-06
1.67305555526e-05
7.95265498524e-05
0.000228250686147
0.000320351417042
0.00033601187676
0.000335997243597
0.00033512289307
0.000334659454333
0.000334447491822
0.000334360724858
0.000334353263649
0.000334425963621
0.000334618179007
0.00033517053214
0.000333987142294
0.000291223644753
0.000129786451051
0.00044456871214
0.000132148171183
1.10958277072e-05
1.56078453365e-05
6.72389712118e-05
0.000194044378615
0.000303938858689
0.000333539237051
0.000336026301816
0.000335222782645
0.000334643049748
0.000334363973069
0.000334247143935
0.00033423248297
0.000334316281294
0.000334542453835
0.000335183578401
0.000333598159247
0.000285218030022
0.000132177364509
0.000552319561908
0.000192762885581
1.68364461401e-05
1.09459580144e-05
4.64811317911e-05
0.000152420522383
0.00027918575479
0.000328497183598
0.000335735992261
0.000335339917619
0.000334649742725
0.000334288829799
0.000334134127672
0.000334109517253
0.000334203145256
0.00033446591163
0.000335175117353
0.000333110318562
0.000279082030119
0.000134137543486
0.000644845428667
0.000273024733606
3.56836453502e-05
8.98299594711e-06
2.30989368609e-05
9.83644897019e-05
0.000238094307813
0.000317917718385
0.000334568453625
0.000335412094643
0.000334681125451
0.000334226922011
0.000334025114346
0.000333986860923
0.00033408792252
0.000334389603618
0.000335141336265
0.000332510181974
0.000272953537159
0.000135818375207
0.000714819132497
0.000370681397945
9.2060785546e-05
1.21155706538e-05
1.52777094888e-05
6.57113758927e-05
0.000193655513934
0.000300667659652
0.000331727695359
0.00033528827363
0.000334723806786
0.000334181575227
0.000333923740791
0.000333867286444
0.000333972322529
0.000334314431891
0.000335080480683
0.000331785161876
0.000266926961105
0.000137324258825
0.000771124596421
0.000474311263542
0.000181666033374
1.79719189124e-05
1.24505341522e-05
4.85049647557e-05
0.000156842194615
0.000278549132773
0.000326632684119
0.000334769894338
0.000334748945664
0.000334153218344
0.000333833062337
0.000333753328765
0.000333858070694
0.000334240871785
0.000334991943586
0.000330924999405
0.000261064048429
0.000138730528002
0.000819199801752
0.000575460746329
0.000259463781301
2.7080940548e-05
1.06802653406e-05
3.31002724513e-05
0.000120763393883
0.000250630120203
0.000318480856816
0.00033359810927
0.000334711921131
0.000334139008218
0.000333755115605
0.000333646906755
0.000333746642505
0.000334168881552
0.000334875585251
0.000329922399209
0.000255402987025
0.000140093335179
0.000860354933677
0.000666651351465
0.000340014099114
4.81017378451e-05
1.15593218343e-05
2.16012224477e-05
8.71412469777e-05
0.00021681509676
0.000306213740138
0.000331372382467
0.000334531637308
0.000334129410205
0.000333690521611
0.000333549231253
0.000333639159629
0.000334097959624
0.000334731244313
0.000328773038072
0.000249965337618
0.000141455196827
0.000894495913629
0.000741138202284
0.000441720963568
0.000105810685693
1.53583320709e-05
1.67481861921e-05
6.60637613477e-05
0.000185168882412
0.000290469817307
0.000327727138392
0.000334084979649
0.000334103687624
0.000333637881561
0.000333460942189
0.000333536481589
0.000334027321476
0.000334558448868
0.000327475254333
0.000244761243218
0.000142848979888
0.000923316709012
0.000805771923164
0.00055283134688
0.000199364342485
2.22504978126e-05
1.46170276364e-05
5.33607389994e-05
0.000159066198089
0.000272642730698
0.000322477526642
0.000333243847105
0.000334035498461
0.000333595203562
0.000333382832782
0.000333439532536
0.00033395616933
0.000334356327785
0.000326029671471
0.000239793232032
0.000144300916007
0.000948196815906
0.000864510542737
0.00066408950822
0.000304427856813
3.6759394951e-05
1.33828720273e-05
4.16753508538e-05
0.000133456784766
0.000251835965916
0.000315212297901
0.000331862844776
0.000333900578122
0.000333563518858
0.000333317326727
0.00033334985615
0.000333883988874
0.000334123660816
0.00032443884477
0.000235058879298
0.000145832673441
0.000969423874684
0.000917008889573
0.000760396915443
0.000393366439804
5.81614266998e-05
1.45840347591e-05
2.82986841753e-05
0.000101638272044
0.000224122412577
0.000304646314616
0.000329641700649
0.000333656063246
0.000333544954369
0.000333268746963
0.000333269901132
0.000333810705446
0.000333858976461
0.000322706939049
0.000230552623075
0.000147462665092
0.000986686168924
0.000960549974891
0.000836174547427
0.00048115813844
9.64490025388e-05
2.0168180702e-05
2.0016457571e-05
7.1000283308e-05
0.000189327865915
0.000289257755959
0.000326025767759
0.000333186768586
0.000333527727074
0.000333239524919
0.000333202106193
0.000333736406769
0.000333560556443
0.000320839384974
0.00022626697958
0.000149206865453
0.00100095185899
0.000995979290953
0.000896774920393
0.000591939986877
0.000184290930573
2.9812690506e-05
1.76266489001e-05
5.30688305379e-05
0.000157533781398
0.000270137882447
0.000320573318379
0.00033230850012
0.000333474293575
0.000333225409422
0.000333147232599
0.000333660741057
0.00033322631692
0.000318842511194
0.000222193359014
0.000151079336276
0.00101447873234
0.00102815907512
0.00095446630513
0.00070651786103
0.000304540273162
4.58414341795e-05
1.7382258547e-05
4.19354942984e-05
0.000130903688473
0.000248703489905
0.000313062971883
0.0003308384206
0.000333335805293
0.000333217823745
0.000333104334493
0.000333582714836
0.000332853725415
0.000316723198234
0.00021832260618
0.000153093190388
0.00102822597119
0.00105850772181
0.00100987724474
0.00080786653331
0.000405513502471
6.99174661834e-05
1.95107530281e-05
3.15870477922e-05
0.000103394782548
0.000223117769162
0.000302819119258
0.000328553094158
0.000333061893841
0.000333209318469
0.000333072538685
0.00033350119387
0.000332439943502
0.00031448864349
0.000214645465609
0.000155259990286
0.00104172520004
0.00108519622927
0.0010572673549
0.000890128948949
0.000495493568987
0.000108723677501
2.57818619403e-05
2.46383776783e-05
7.74319526399e-05
0.00019320627737
0.000288994224603
0.000325093819691
0.000332564961816
0.000333185649507
0.000333050110968
0.000333414924133
0.000331981991101
0.00031214619647
0.000211152984905
0.000157588837186
0.00105498858245
0.00110799442793
0.00109609115802
0.000957832960466
0.000606130858181
0.000189014794767
3.64147377986e-05
2.22473966455e-05
6.02134901719e-05
0.00016522169026
0.000272418091288
0.000320182287475
0.000331706240883
0.000333112369528
0.000333030340198
0.000333321513319
0.000331476668531
0.000309703189698
0.000207836822697
0.000160086537916
0.00106906329738
0.00112937345713
0.0011316010962
0.00101997906407
0.000722018613273
0.00030315283465
5.38738934693e-05
2.223864527e-05
4.9243202688e-05
0.000141777202783
0.000254463086083
0.00031375117144
0.00033035173572
0.000332945571622
0.00033300296229
0.000333217738274
0.000330920695267
0.000307166885334
0.000204689519252
0.00016275781427
0.0010846084944
0.00115073327409
0.00116594557775
0.00107986553504
0.000833283118439
0.000427785323202
8.3588907311e-05
2.42895188904e-05
4.04957557109e-05
0.000119913227933
0.000234658873625
0.000305557920773
0.000328377740103
0.000332652387795
0.000332962551098
0.000333102599558
0.000330311750516
0.000304544774872
0.000201704794776
0.000165605736345
0.00110143620142
0.00117181684528
0.001198357912
0.00113508261121
0.000926761616393
0.000527594420163
0.000125130144851
3.06577011217e-05
3.26204588487e-05
9.59940154633e-05
0.000210790943073
0.000294825119672
0.000325577228405
0.000332198387265
0.000332909711467
0.000332978919696
0.000329649478357
0.000301844872213
0.000198877754771
0.000168634252297
0.00111884520756
0.00119140721617
0.00122641679551
0.00118095061729
0.00100118959638
0.000615594215714
0.000182918083082
4.30381670207e-05
2.85523486724e-05
7.37685212656e-05
0.000183202606052
0.000280848475774
0.000321620203223
0.000331501668628
0.00033283489858
0.000332848386784
0.000328934339649
0.000299075062614
0.000196204895503
0.00017184673009
0.00113662601722
0.00120944597126
0.00125025478419
0.00121861240586
0.00106432923264
0.000719211340243
0.00028053596099
6.18580301336e-05
2.85512017531e-05
5.88312057745e-05
0.000157044650275
0.000264333209668
0.000316265858502
0.000330431254657
0.000332704639568
0.000332704710458
0.000328164754636
0.00029624152424
0.000193683763161
0.000175246432799
0.00115523256158
0.00122732081857
0.00127273114978
0.00125352716372
0.00112351895138
0.000824931821436
0.000401026089644
9.08088942819e-05
3.12261914779e-05
4.88150457679e-05
0.000133799638843
0.000246031840117
0.000309382902619
0.000328859336302
0.000332475763347
0.000332536305738
0.000327336718613
0.000293348094241
0.000191312851765
0.00017883691376
0.00117472484064
0.00124544572021
0.0012945137463
0.0012864290346
0.00117869608595
0.000919617681886
0.00051225688813
0.000132063184371
3.77331187419e-05
4.11192935536e-05
0.000111146200131
0.000225185331315
0.000300622591892
0.000326652173005
0.000332111500909
0.000332334764474
0.00032644693259
0.000290397642815
0.000189092171992
0.000182622245242
0.00119462920749
0.00126313958212
0.00131441381369
0.00131526919387
0.00122643820503
0.000999797067376
0.000609344365104
0.000189799474066
4.99128179684e-05
3.66653533137e-05
9.01207649111e-05
0.000201766369204
0.000289594136473
0.000323629434864
0.000331564280196
0.000332091639936
0.000325493343937
0.000287392964363
0.000187023887094
0.000186607270285
0.00121465718898
0.00128012323644
0.00133216883666
0.00133996504801
0.00126751065421
0.00107199096906
0.000708509498507
0.000274970837788
6.89796290669e-05
3.60473720045e-05
7.39887802846e-05
0.000178274071046
0.000276522872475
0.000319632248202
0.000330758795566
0.000331786281121
0.000324470428742
0.000284335037835
0.00018511211813
0.000190797716059
0.00123498569566
0.00129702131057
0.00134910095335
0.00136286356597
0.00130528299892
0.00113675515286
0.000809296531674
0.000380981911876
9.82206829691e-05
3.86729917614e-05
6.24259620677e-05
0.000156395075321
0.000261897682208
0.000314567324193
0.000329611070647
0.000331387807304
0.000323367809212
0.000281222265973
0.000183362702061
0.000195199763391
0.00125578857826
0.00131433852859
0.00136609857697
0.0013851444038
0.00134096907743
0.00119650143813
0.000906232310102
0.000496481895063
0.000141016594971
4.4971492001e-05
5.39593887568e-05
0.000135696012216
0.000245644227648
0.000308287342938
0.000328040941537
0.000330869258396
0.000322176959183
0.000278054287806
0.000181784126183
0.000199819057821
0.00127697139905
0.00133202656695
0.00138307531969
0.00140650034959
0.0013739779421
0.00125076692273
0.000993887820524
0.00060358733969
0.000199509188978
5.68482843453e-05
4.81147314736e-05
0.000115354053761
0.000227177200165
0.000300503750054
0.000325953557397
0.000330210083752
0.00032089611186
0.000274835750738
0.000180388784852
0.000204660531764
0.0012982237528
0.00134968506374
0.00139946446676
0.00142611980263
0.00140334699786
0.00129865894216
0.00107114596838
0.000700034531528
0.000274991358909
7.65220785792e-05
4.58449525503e-05
9.65348299054e-05
0.000206539482243
0.000290940360437
0.000323226056226
0.000329380371728
0.000319523440679
0.000271572987529
0.000179192150151
0.000209729433502
0.00131928319794
0.00136707271858
0.00141508042757
0.00144395827567
0.00142939314337
0.00134123804785
0.00114159117073
0.000794447110525
0.00036946493333
0.000106174735412
4.77709049613e-05
8.13579486301e-05
0.000185045304961
0.000279590567801
0.000319735851487
0.00032833016893
0.000318046432531
0.000268266967663
0.00017821041986
0.000215032143052
0.00134006221181
0.00138428731586
0.00143031823288
0.00146084262383
0.00145351225103
0.0013803626976
0.00120590265853
0.000887856623297
0.000475603577931
0.000149224211852
5.41897428124e-05
7.01771479485e-05
0.000163864869872
0.000266566258162
0.000315372665763
0.000326999000438
0.000316443373063
0.000264913222253
0.000177459575391
0.000220574347078
0.00136055176904
0.00140148041678
0.00144555679489
0.00147740541091
0.00147654105033
0.00141690954741
0.00126498284375
0.0009785902347
0.000585199895254
0.000208676462586
6.62635478932e-05
6.26384499444e-05
0.00014338934395
0.000251796178626
0.000309995051528
0.000325325162479
0.000314694310494
0.000261510002166
0.000176957299862
0.000226358034822
0.00138079162363
0.00141875417238
0.00146098176125
0.00149389598565
0.0014987527328
0.00145125389722
0.00131990886375
0.00106425154851
0.000691955999845
0.00028475593346
8.62233882624e-05
5.88046599221e-05
0.000123835930779
0.000235028447297
0.000303395777317
0.000323241168916
0.000312785508358
0.000258063146588
0.000176724543563
0.000232380619657
0.00140087137509
0.00143618907314
0.00147667875023
0.00151041039912
0.00152028854107
0.0014837130776
0.00137119652943
0.00114354448345
0.000790339465477
0.000375842691362
0.000116998702659
5.93803974474e-05
0.000106049255057
0.000216194824362
0.00029533295025
0.000320664767042
0.000310702112764
0.000254581255851
0.000176784727276
0.000238638051407
0.00142094839309
0.00145392410721
0.00149280144927
0.00152715950031
0.00154147555398
0.00151478376369
0.00141942921955
0.00121748932334
0.00088530359224
0.000477907559402
0.000161484437363
6.53709657648e-05
9.14640849181e-05
0.000195846760804
0.000285622679124
0.000317500334892
0.000308418894301
0.000251067393275
0.000177161135957
0.000245127923786
0.00144125813804
0.00147220740425
0.00150966235214
0.00154457645469
0.0015629091185
0.00154522531892
0.00146552330113
0.00128742510976
0.000979111215728
0.000585774566257
0.000222401459221
7.80318083992e-05
8.10268095108e-05
0.000174930141875
0.000274157335455
0.00031364490663
0.000305901091485
0.000247518419842
0.000177875075558
0.000251847691474
0.00146208816918
0.00149134692078
0.00152763294355
0.00156313186153
0.00158516775565
0.00157571902807
0.00151032638805
0.00135438820613
0.00107168023957
0.00069478839279
0.000300994262062
9.94233985337e-05
7.51668957628e-05
0.000154355290023
0.000260828156811
0.00030898116646
0.000303111740104
0.00024393118898
0.00017894348749
0.000258786642956
0.00148378007322
0.00151168545154
0.00154708074643
0.00158323464947
0.00160870923233
0.00160680532477
0.0015545687611
0.00141928110493
0.00116244317546
0.00080265437778
0.000395550075772
0.000132529806333
7.44288368968e-05
0.000135003568742
0.000245503224049
0.000303363334159
0.000300014319731
0.000240305453849
0.000180373172203
0.000265914098565
0.00150676406042
0.00153363371131
0.00156840989351
0.00160530152104
0.00163399711232
0.00163906730018
0.00159903849414
0.00148293702876
0.0012508793066
0.000907257854619
0.000502115212447
0.000180835770721
7.98557313113e-05
0.000117934485582
0.000228138539294
0.000296611925738
0.000296567539183
0.000236637744044
0.000182149565251
0.000273166026268
0.0015315948478
0.00155771243635
0.00159211753213
0.00162983388169
0.00166158589135
0.00167317004121
0.00164450890653
0.00154604822495
0.00133742426185
0.00101133287798
0.000615114729267
0.000247129614333
9.31378489257e-05
0.000104419757237
0.000208980154479
0.00028852452847
0.000292717868234
0.000232909738355
0.000184219841194
0.000280426916654
0.00155895611102
0.00158455952298
0.00161880561596
0.00165743065591
0.00169212150957
0.00170985005397
0.00169183087286
0.00160972196137
0.00142307174179
0.00111605394473
0.000730838494554
0.000332073308579
0.000116645441246
9.56922729251e-05
0.000188678267141
0.000278887075077
0.000288394764387
0.000229079843029
0.000186477303623
0.000287514405512
0.00158962476326
0.00161489824954
0.00164915610364
0.00168877308338
0.00172634357536
0.00174996424414
0.00174204471326
0.00167526547703
0.00150887267236
0.00122123176616
0.000846390038719
0.000433566336198
0.000153452973291
9.29067471303e-05
0.000168270865267
0.000267479838874
0.000283507982905
0.000225080818346
0.000188755442622
0.000294177732746
0.00162441298436
0.00164949333957
0.00168390486295
0.00172461537374
0.00176508463736
0.00179447292905
0.00179625031283
0.00174385247281
0.00159561025877
0.00132599921003
0.000960191514591
0.000547079145002
0.000207017373458
9.75005470966e-05
0.000149173847683
0.000254112717916
0.000277946980003
0.00022083014421
0.000190854247731
0.000300141196397
0.00166410419102
0.00168909846665
0.00172379316664
0.0017657180148
0.00180914441015
0.00184418504877
0.00185514134375
0.0018158533399
0.0016838825431
0.00143064995196
0.00107480436499
0.000667223337037
0.000280158124425
0.000111645093049
0.000133088544484
0.000238690811274
0.000271581246224
0.000216245980557
0.000192584112399
0.000305166659186
0.00170939766371
0.00173439505694
0.00176948926188
0.00181273976122
0.0018591574857
0.00189966932257
0.0019191765461
0.00189164461526
0.00177443244489
0.00153648462737
0.00119185598146
0.000790080575325
0.000373848578508
0.000138598683774
0.000121830466102
0.000221284465923
0.000264262149381
0.000211286192754
0.000193850920392
0.000309158111431
0.00176093326705
0.00178602117312
0.0018216334542
0.00186633154511
0.00191580458995
0.00196168819572
0.00198932472907
0.00197260151028
0.00186866908051
0.00164497239497
0.00131165576593
0.000912877716916
0.000486289659122
0.000182715587402
0.000117464519664
0.000202366491465
0.000255832266829
0.000205988529444
0.000194741307975
0.000312251993596
0.0018194678454
0.0018447699669
0.00188108174923
0.00192745629973
0.00198022654896
0.00203166210112
0.00206737194457
0.00206074593906
0.00196839870136
0.00175739685447
0.00143461686067
0.00103890096957
0.000612067751076
0.000248211316535
0.000122411393939
0.000183068882187
0.000246143173293
0.000200521091107
0.000195615576677
0.000314903029662
0.00188625001712
0.00191199640365
0.00194935848322
0.00199789124474
0.00205455277308
0.00211213799847
0.00215614284185
0.00215832643363
0.0020750384588
0.00187446453334
0.00156115670653
0.00116975039381
0.000744471955536
0.000337168778234
0.000139329691985
0.000164996672839
0.000235019609721
0.000195188544143
0.000197103962187
0.000317842144578
0.00196339816432
0.00198993909694
0.0020288716418
0.00208024267279
0.00214154044381
0.00220578126055
0.00225766241105
0.00226674317696
0.00218970688468
0.0019969034601
0.00169165008686
0.00130474281667
0.000877302997163
0.000447721355061
0.000171229849681
0.000150034195111
0.00022220132158
0.000190428617689
0.000200104459019
0.000322030423469
0.0020541070147
0.00208183729458
0.00212290946853
0.00217780784474
0.00224435184273
0.00231526956673
0.00237342167528
0.00238664212488
0.00231269775584
0.00212477771673
0.00182569837433
0.00144249956578
0.00101185371408
0.000573208946399
0.000220872778748
0.00014019549628
0.000207248836594
0.000186757343746
0.000205719338171
0.000328523737551
0.00216285306968
0.0021921334269
0.00223583969243
0.00229478189057
0.00236676065129
0.00244338831943
0.00250499263119
0.0025180886312
0.00244315353056
0.00225695915391
0.00196211326607
0.00158202616245
0.00114938763683
0.000703487582575
0.000290933449119
0.000137342182709
0.000189443285898
0.000184714360943
0.000215183928105
0.000338328715495
0.00229597683081
0.00232694979292
0.00237337473341
0.00243605620378
0.00251198406874
0.00259058688402
0.00264985409121
0.00265597235497
0.00257449336965
0.00238667139768
0.00209509290121
0.00171945648298
0.00128792566179
0.00083380004857
0.000381728351375
0.000144126672904
0.000168282710148
0.000184735015291
0.000229729337916
0.000352274907204
0.00245958776925
0.00249018295767
0.00253600826098
0.00259726431984
0.00266954798692
0.00274068188039
0.00278881235533
0.00278430961718
0.00269943446777
0.00251780373839
0.00223860592356
0.0018747788234
0.00144747393159
0.000981521192414
0.000497888176503
0.000164985231722
0.000144916014951
0.000186679939456
0.000250023760128
0.000370388585724
6.40184426447e-05
3.64398271513e-05
8.3850636894e-05
5.20239327574e-05
9.85239580269e-05
6.70331950802e-05
0.000107426301836
7.13778490136e-05
0.000112106791046
7.16505812393e-05
0.000114146957387
6.99409171316e-05
0.000114750597359
6.71738120739e-05
0.000114585350044
6.38737952322e-05
0.000113969576755
6.03474136099e-05
0.000113065651783
5.67793648011e-05
0.000111979857264
5.32843730769e-05
0.000110795611878
4.99352243439e-05
0.000109582172694
4.67789615782e-05
0.00010839806938
4.38465088647e-05
0.000107293159437
4.115829852e-05
0.000106309498801
3.87275272568e-05
0.000105481409767
3.65620436298e-05
0.000104835182371
3.46654502134e-05
0.000104388519525
3.30381673539e-05
0.000104134035885
3.16828353943e-05
0.000104070002023
3.05880842394e-05
0.000104207260137
2.97316884565e-05
0.000104549192803
2.90939456134e-05
0.000105092593554
2.86566110051e-05
0.00010582601056
2.84035945804e-05
0.000106697667883
2.83281803831e-05
0.000107682928941
2.84026780362e-05
0.000108759342221
2.85989472606e-05
0.000109908213204
2.88901605578e-05
0.00011111566806
2.92522528667e-05
0.000112373102092
2.96650799638e-05
0.000113676892813
3.01130037409e-05
0.00011502763902
3.0585006733e-05
0.000116429419654
3.10745868066e-05
0.000117888839325
3.15791667064e-05
0.000119413015962
3.20986283861e-05
0.000121007362678
3.2633718025e-05
0.000122675494452
3.31857207061e-05
0.000124421373311
3.37572680968e-05
0.000126250097035
3.43522705224e-05
0.000128165331781
3.49740934062e-05
0.000130166882677
3.56238518187e-05
0.000132252435872
3.63009183463e-05
0.00013442149597
3.70046724645e-05
0.000136674360712
3.77344973626e-05
0.000139003836119
3.84871338707e-05
0.000141385000304
3.92538297969e-05
0.000143770154563
4.00200710701e-05
0.000146090787414
4.07680211897e-05
0.000148268462005
4.14809726207e-05
0.000150230959245
4.2147582918e-05
0.000151936884862
4.2767168863e-05
0.000153398020386
4.33531079258e-05
0.000154703816659
4.39361090622e-05
0.000156022616026
4.45631086003e-05
0.000157589482108
4.52941899037e-05
0.000159685798845
4.61940077945e-05
0.000162578576251
4.73180353571e-05
0.000166504930922
4.87042763622e-05
0.000171060649674
5.01788048558e-05
)
;

boundaryField
{
    inletfuel
    {
        type            calculated;
        value           uniform 0.00419262745781;
    }
    inletair
    {
        type            calculated;
        value           uniform 0.000335410196625;
    }
    outlet
    {
        type            calculated;
        value           nonuniform List<scalar> 
26
(
0.00243402452695
0.00243590928914
0.00244006553459
0.00244594298367
0.00245958776925
0.00249018295767
0.00253600826098
0.00259726431984
0.00266954798692
0.00274068188039
0.00278881235533
0.00278430961718
0.00269943446777
0.00251780373839
0.00223860592356