/*--------------------------------*- C++ -*----------------------------------*\
  =========                 |
  \\      /  F ield         | OpenFOAM: The Open Source CFD Toolbox
   \\    /   O peration     | Website:  https://openfoam.org
    \\  /    A nd           | Version:  dev
     \\/     M anipulation  |
\*---------------------------------------------------------------------------*/
FoamFile
{
    version     2.0;
    format      ascii;
    class       volScalarField;
    location    "0.3";
    object      O;
}
// * * * * * * * * * * * * * * * * * * * * * * * * * * * * * * * * * * * * * //

dimensions      [0 0 0 0 0 0 0];

internalField   nonuniform List<scalar> 
1629
(
4.72313160887e-20
4.50743129377e-20
3.66110762174e-20
6.53243770101e-18
9.01116212156e-18
1.56504567621e-17
4.87520759607e-16
1.03905238189e-15
3.81507328858e-15
2.70110405056e-14
8.67767170709e-14
6.13758496705e-13
1.03286415502e-12
3.4627363935e-12
1.97805013629e-11
3.92126842722e-11
1.42981449628e-10
7.37079862989e-10
1.14800025599e-09
4.26870039868e-09
1.99337524852e-08
1.97278171403e-08
7.1848118184e-08
3.31883846976e-07
4.81499053041e-08
1.18448802982e-07
3.24327970842e-07
6.8297011659e-08
1.19873271842e-07
2.14131668074e-07
7.07148300967e-08
9.52036982045e-08
1.2204565892e-07
5.97296775816e-08
6.76081129324e-08
7.47261430381e-08
4.40514119184e-08
4.60721073129e-08
5.31192030074e-08
2.88092223872e-08
2.89418320846e-08
3.30098261081e-08
1.66527955376e-08
1.61243599433e-08
1.70942941678e-08
8.5621593004e-09
8.10171035337e-09
8.34839047074e-09
4.09632356302e-09
4.05385277346e-09
5.12699636327e-09
1.88312253718e-09
2.02261784675e-09
3.05710276127e-09
8.34545764145e-10
9.61612501621e-10
1.55887618701e-09
3.56010586322e-10
4.3028794192e-10
7.09675233046e-10
1.67676241196e-10
2.32027893352e-10
4.81185103835e-10
1.28980785497e-10
2.27355812682e-10
6.22905108076e-10
1.27240597004e-10
2.3313392206e-10
6.22123051937e-10
1.13932331821e-10
1.95937477289e-10
4.67854428133e-10
9.13162429889e-11
1.46706974463e-10
3.18706150242e-10
8.29841426052e-11
1.31457535048e-10
2.84462331251e-10
1.02237631504e-10
1.63740411413e-10
3.61771471582e-10
1.29626250993e-10
1.99597146407e-10
4.14754935626e-10
1.43244150695e-10
2.06250013195e-10
3.8779789834e-10
1.45426125662e-10
1.961461252e-10
3.35084587536e-10
1.56260701187e-10
2.02753341371e-10
3.29109843937e-10
1.94791000944e-10
2.50314385138e-10
4.03240892807e-10
2.63165279092e-10
3.35729049239e-10
5.34523659958e-10
3.38663673884e-10
4.23384124072e-10
6.50089978301e-10
3.89849890388e-10
4.72491903429e-10
6.86726555435e-10
4.22937391388e-10
4.98037440637e-10
6.88086288243e-10
4.81258058534e-10
5.57570509877e-10
7.49333708906e-10
6.12543838435e-10
7.05433129479e-10
9.38741352967e-10
8.45225138267e-10
9.67546242059e-10
1.27301926157e-09
1.18352316315e-09
1.34052208303e-09
1.72838568021e-09
1.61623524537e-09
1.80477122726e-09
2.26445069561e-09
2.14693543432e-09
2.3607294515e-09
2.87515734857e-09
2.83336128053e-09
3.07130879129e-09
3.63714951606e-09
3.82023392431e-09
4.09352845795e-09
4.7375801972e-09
5.3484171166e-09
5.68197338426e-09
6.46300583084e-09
7.74580137874e-09
8.17351553829e-09
9.16960033336e-09
1.1426592266e-08
1.19862748194e-08
1.32827676055e-08
1.68405770669e-08
1.75657443391e-08
1.92364801959e-08
2.43289387515e-08
2.52386638628e-08
2.73240921816e-08
3.38481346484e-08
3.49387863046e-08
3.74297778586e-08
4.46364989903e-08
4.58843527224e-08
4.87310854478e-08
5.51582440936e-08
5.65480150688e-08
5.97264542058e-08
6.40713867471e-08
6.56876596413e-08
6.94091364739e-08
7.2298814995e-08
7.44708270262e-08
7.95105122339e-08
8.48573321054e-08
8.82781439284e-08
9.62395812289e-08
1.11551109378e-07
1.17361475889e-07
1.30860891653e-07
1.67455817042e-07
1.77364610386e-07
2.0029976805e-07
2.75889591285e-07
2.92448241148e-07
3.30615408876e-07
5.13791975638e-07
5.43735362886e-07
6.12549403914e-07
1.02966031997e-06
1.08579154725e-06
1.21436263891e-06
2.19752933795e-06
2.30797637396e-06
2.56017294172e-06
4.9475309702e-06
5.1741399125e-06
5.68994984001e-06
1.19158046993e-05
1.24181411724e-05
1.35587442614e-05
3.45515155045e-12
8.1362661972e-11
2.57622069029e-09
6.724140418e-08
1.45090838473e-06
7.7197564276e-07
3.20656845638e-07
1.29812497745e-07
9.76107082644e-08
9.62584839864e-08
5.60578950443e-08
2.44763663073e-08
1.24011328725e-08
1.14104676637e-08
7.3172606027e-09
3.53089100579e-09
1.50940984005e-09
1.31548984823e-09
1.99434834088e-09
1.79765843248e-09
1.17953067312e-09
7.29785426673e-10
6.68873758873e-10
8.70641323084e-10
9.28658908774e-10
7.81454486068e-10
6.15790081868e-10
5.84138886236e-10
7.18819169073e-10
9.39963118619e-10
1.09496861526e-09
1.08619820932e-09
1.02935738001e-09
1.09044517617e-09
1.35359825489e-09
1.81082939816e-09
2.39900551702e-09
3.04211607373e-09
3.72637257009e-09
4.5549389076e-09
5.76623920935e-09
7.69668133651e-09
1.07280615095e-08
1.52923146474e-08
2.18015679378e-08
3.04981598965e-08
4.11977267788e-08
5.30300394901e-08
6.45489332416e-08
7.51218559337e-08
8.73453319588e-08
1.08673125998e-07
1.51873550119e-07
2.35765574133e-07
3.89208120401e-07
7.17648963077e-07
1.40958746096e-06
2.94106319088e-06
6.46467303341e-06
1.52643360853e-05
1.90316233531e-16
9.42151134614e-16
2.29596110587e-15
3.31956547564e-15
2.78127419739e-15
1.49563105429e-15
5.65406084295e-16
1.59682021406e-16
3.53966043005e-17
6.33557134397e-18
9.29193996673e-19
1.12819741921e-19
1.14335021918e-20
9.74490634467e-22
7.04287377779e-23
4.36025996427e-24
2.34585537631e-25
1.11584436163e-26
4.77715764906e-28
1.08987793519e-29
3.39700456509e-15
1.585076762e-14
4.52510325958e-14
7.17326193114e-14
5.64500572264e-14
2.68776100328e-14
8.82808399265e-15
2.16482218833e-15
4.21118698334e-16
6.67529696595e-17
8.74979099124e-18
9.58927392586e-19
8.86770967134e-20
6.97949494234e-21
4.72025124218e-22
2.77620673618e-23
1.4451607321e-24
6.80042244251e-26
2.88211386255e-27
6.56539670699e-29
6.71987324314e-14
1.65288583361e-13
5.35923597656e-13
9.15366556094e-13
6.69560103864e-13
2.83770712768e-13
8.22804505621e-14
1.79669044276e-14
3.14884794498e-15
4.52905829295e-16
5.42911795378e-17
5.48730492074e-18
4.72137088228e-19
3.49007392612e-20
2.23961383299e-21
1.26478370796e-22
6.41337430766e-24
3.00589961474e-25
1.27680032445e-26
2.75090353101e-28
2.33753903417e-12
2.15816032145e-12
5.94940148258e-12
9.40949954089e-12
6.28520203819e-12
2.42217309467e-12
6.39935982086e-13
1.29215715417e-13
2.10825408979e-14
2.84298327e-15
3.21863709696e-16
3.0943291132e-17
2.54969338342e-18
1.81693800778e-19
1.13167737824e-20
6.25106311801e-22
3.13046735986e-23
1.47052938504e-24
6.40184662636e-26
1.65616769814e-27
1.3294658741e-10
8.87836282464e-11
9.64216052939e-11
1.07531759562e-10
6.09664617358e-11
2.08384035711e-11
4.95514977932e-12
9.16907258524e-13
1.38259610313e-13
1.74370652736e-14
1.86819894622e-15
1.71786225143e-16
1.36648971917e-17
9.47691253878e-19
5.78657293159e-20
3.15593554076e-21
1.57283364321e-22
7.4355906281e-24
3.32824549153e-25
1.07861572747e-26
6.68132680184e-09
1.03651898047e-08
2.68261922234e-09
1.40642321294e-09
6.00361616119e-10
1.74888366823e-10
3.68830134771e-11
6.13453794636e-12
8.4694939514e-13
9.96434358641e-14
1.01238843906e-14
8.94882549431e-16
6.9183114473e-17
4.70444931361e-18
2.83695885585e-19
1.53775122157e-20
7.66252881124e-22
3.64745488853e-23
1.65701709776e-24
6.06055313053e-26
2.38784666567e-07
1.57905379336e-06
1.5183031131e-07
2.77347116407e-08
6.62971485589e-09
1.40130863614e-09
2.46371794668e-10
3.61568417418e-11
4.56371017086e-12
5.04351298022e-13
4.91249947432e-14
4.22514336544e-15
3.21248145324e-16
2.16509121735e-17
1.3014012962e-18
7.06130634631e-20
3.53292711264e-21
1.69131174484e-22
7.67945217529e-24
2.95012206479e-25
1.50701868853e-05
0.00164376221263
3.82640179855e-05
1.27086799447e-06
9.31103270206e-08
9.80117706584e-09
1.26659937716e-09
1.63375846457e-10
1.94387710714e-11
2.093327232e-12
2.02136194461e-13
1.73952277886e-14
1.33009648301e-15
9.0410268019e-17
5.48928300023e-18
3.00993808632e-19
1.52017599733e-20
7.31668568379e-22
3.28652206916e-23
1.26161438418e-24
3.1902402806e-06
0.000146859802785
6.71877869757e-06
4.50963900459e-07
7.7245009295e-08
1.40538256594e-08
2.48286300952e-09
3.97235811796e-10
5.46216897233e-11
6.47932874571e-12
6.69302406712e-13
6.05416425896e-14
4.81310275779e-15
3.37731375736e-16
2.10569763419e-17
1.18012282042e-18
6.05656035357e-20
2.93510274941e-21
1.29804190209e-22
4.82573894681e-24
5.89840510517e-07
7.98519864961e-06
9.23922610969e-07
1.47085463287e-07
5.0230271639e-08
1.49305625458e-08
3.55596565015e-09
7.16888709706e-10
1.18221079109e-10
1.60959692625e-11
1.84559362854e-12
1.80896293057e-13
1.53170418209e-14
1.13037194832e-15
7.33982797116e-17
4.24729891945e-18
2.22930853875e-19
1.09061996522e-20
4.74463742142e-22
1.68126623705e-23
1.20062421007e-07
4.02989921959e-07
1.98974680666e-06
1.27976288119e-07
3.79263180084e-08
1.66163090507e-08
4.98420561138e-09
1.19607036323e-09
2.29430882362e-10
3.545828731e-11
4.51379459003e-12
4.82306067709e-13
4.3866763942e-14
3.43520771716e-15
2.3420333813e-16
1.40870924779e-17
7.5987342804e-19
3.762897504e-20
1.61251029074e-21
5.41296432818e-23
3.68854363737e-07
1.27477556328e-05
0.00103461429167
2.52708891306e-05
1.05380541403e-06
9.5143177853e-08
1.36444273356e-08
2.52480328746e-09
4.68463132673e-10
7.58765005619e-11
1.03539586799e-11
1.18895969919e-12
1.15676027853e-13
9.61957045389e-15
6.90575439891e-16
4.33231429739e-17
2.40919704709e-18
1.21059844471e-19
5.12325898326e-21
1.62863478587e-22
4.71888767785e-07
1.39007028415e-05
0.0012059813047
2.15141299989e-05
8.27963985454e-07
9.32683140629e-08
1.8925648655e-08
4.07761000344e-09
8.36275619219e-10
1.47802384896e-10
2.18656688125e-11
2.70666786797e-12
2.82140218544e-13
2.49636296326e-14
1.89162081571e-15
1.24103016781e-16
7.13432263763e-18
3.64753907018e-19
1.52989924236e-20
4.621848109e-22
2.025126875e-07
3.52669159484e-06
0.000169987697757
4.67843572288e-06
2.70205508001e-07
4.92363656088e-08
1.79919182603e-08
5.11367495112e-09
1.24941658223e-09
2.52477850071e-10
4.15820334631e-11
5.63062856062e-12
6.34218345243e-13
6.00384251813e-14
4.82213379328e-15
3.32003861416e-16
1.97949656117e-17
1.03323380438e-18
4.31486603215e-20
1.24674048102e-21
6.64441216226e-08
7.9908725527e-07
2.30366379166e-05
2.26544606958e-06
1.19820521236e-07
2.2851239965e-08
1.46021404376e-08
5.60890909075e-09
1.65082743079e-09
3.86163596968e-10
7.16957397474e-11
1.07280104993e-11
1.31572850988e-12
1.34036923374e-13
1.14636924836e-14
8.31553761101e-16
5.16142608108e-17
2.7615810188e-18
1.15442218837e-19
3.21707686604e-21
4.32414467761e-08
7.71719361562e-07
2.84957106231e-05
0.000607139824221
1.38804919893e-05
5.03826904535e-07
4.36495816944e-08
8.57307860917e-09
2.27787023103e-09
5.66695938116e-10
1.15720746888e-10
1.90258751667e-11
2.54206581366e-12
2.79389380194e-13
2.55243251736e-14
1.95711905465e-15
1.26919952411e-16
6.99021508645e-18
2.94189858313e-19
7.98218361428e-21
6.03090216098e-08
1.19040451816e-06
3.78096828718e-05
0.00126402112288
2.08424827196e-05
6.26757935001e-07
5.07494652534e-08
1.07578434159e-08
2.94958905506e-09
7.86076193258e-10
1.75739329071e-10
3.16707861445e-11
4.609020237e-12
5.47152061427e-13
5.35012124131e-14
4.34747455697e-15
2.95510656199e-16
1.68218803599e-17
7.16859893598e-19
1.91260783862e-20
3.40469963456e-08
4.52052660558e-07
7.94942152049e-06
0.000220034138723
5.62578442802e-06
2.41245869081e-07
2.74963804378e-08
9.85056326056e-09
3.32213797662e-09
1.00317649781e-09
2.49559939682e-10
4.95709839458e-11
7.87728495759e-12
1.01182303925e-12
1.0608315829e-13
9.15536686339e-15
6.54144599476e-16
3.86342027798e-17
1.67630402829e-18
4.44161642215e-20
1.37542948105e-08
1.23766604502e-07
1.24035536267e-06
3.04924539399e-05
1.10737890471e-06
6.85702182848e-08
1.15547728008e-08
7.54321399534e-09
3.33882539781e-09
1.17960781092e-09
3.31770708534e-10
7.31786023324e-11
1.27442821616e-11
1.77493132917e-12
1.99871719685e-13
1.8355792559e-14
1.38210663619e-15
8.49884955339e-17
3.77411454604e-18
1.00268957217e-19
5.08313811319e-09
3.52194259368e-08
2.76583411687e-07
5.88766892928e-06
2.09795067426e-06
7.86815486274e-08
7.42935484191e-09
5.39487634293e-09
3.15108387453e-09
1.31021948952e-09
4.18030771718e-10
1.0269915482e-10
1.96340315406e-11
2.96845012544e-12
3.59443992115e-13
3.51806837868e-14
2.79765511373e-15
1.79679622024e-16
8.20540718136e-18
2.20574379628e-19
6.15973990919e-09
7.61180228764e-08
1.30733737457e-06
4.01288505998e-05
0.000720386611401
1.72071611922e-05
5.99053077806e-07
3.88107694665e-08
6.04454500618e-09
1.70971222295e-09
5.33648375386e-10
1.40314072473e-10
2.91221154441e-11
4.76424959651e-12
6.19977447414e-13
6.4714495234e-14
5.44429234887e-15
3.6619249049e-16
1.7271277819e-17
4.73731776626e-19
9.97421366557e-09
1.19812456201e-07
1.79854520972e-06
4.27638072157e-05
0.000988185561233
1.88894668233e-05
5.78723305696e-07
3.51500463705e-08
7.10307188965e-09
2.07270419236e-09
6.63853335194e-10
1.85996101944e-10
4.17016126194e-11
7.36442928735e-12
1.0291927923e-12
1.14620636714e-13
1.02153497625e-14
7.21294455824e-16
3.52709103743e-17
9.94735681795e-19
7.62103573302e-09
6.84069646079e-08
6.94031420702e-07
9.78432026291e-06
0.000164159167565
5.02461102102e-06
2.09492821813e-07
1.73965218193e-08
5.84403920909e-09
2.15658490308e-09
7.70854441467e-10
2.35868829268e-10
5.74580775988e-11
1.09696072312e-11
1.64735278094e-12
1.95906607914e-13
1.85223754309e-14
1.37592225346e-15
7.00009097812e-17
2.04401593014e-18
4.19643866032e-09
2.83463306675e-08
2.02013035926e-07
1.82274978545e-06
2.40635213588e-05
2.04673244908e-06
9.44932070905e-08
8.55433958482e-09
4.084693085e-09
2.02446081736e-09
8.38261699366e-10
2.85376428286e-10
7.61115954073e-11
1.57563252523e-11
2.54617693176e-12
3.23687806501e-13
3.25120859483e-14
2.5459964258e-15
1.35189752336e-16
4.11238514112e-18
2.35135332017e-09
1.43309431165e-08
1.04762053865e-07
1.16883907676e-06
2.73274006621e-05
0.000368077428707
8.88538678065e-06
3.03129639719e-07
2.03449649549e-08
3.35989789222e-09
1.02136118258e-09
3.45491405115e-10
9.83676958377e-11
2.19448648646e-11
3.81140421504e-12
5.18105413161e-13
5.53422833755e-14
4.57647907085e-15
2.5432884466e-16
8.10323319177e-18
2.31494223616e-09
1.70154943121e-08
1.609306703e-07
2.11600545618e-06
5.13613494226e-05
0.000913103300188
1.86041681162e-05
5.43623389895e-07
2.87897492748e-08
4.66287504658e-09
1.26198560332e-09
4.16663589861e-10
1.24504680652e-10
2.97357067737e-11
5.53939440109e-12
8.04995301964e-13
9.15068691732e-14
8.00193828618e-15
4.66513746419e-16
1.56406207634e-17
3.08221498643e-09
2.29103750439e-08
2.06866888444e-07
2.40971124577e-06
4.59822283473e-05
0.000849683531366
1.70348482199e-05
4.47536519424e-07
2.23734584896e-08
4.59164287011e-09
1.39032325684e-09
4.81656216974e-10
1.52764152718e-10
3.91424471467e-11
7.82346066095e-12
1.21582810273e-12
1.47182296196e-13
1.36262995669e-14
8.35069621664e-16
2.95766501297e-17
2.97995912337e-09
1.87411510515e-08
1.36782917493e-07
1.21673605959e-06
1.61747582135e-05
0.00024068130428
6.81699054959e-06
2.07205327354e-07
1.2082952344e-08
3.5193389638e-09
1.34638358724e-09
5.22145550557e-10
1.80136600487e-10
4.99365953519e-11
1.07415436744e-11
1.78724238776e-12
2.30590639051e-13
2.26247910954e-14
1.45992217088e-15
5.48050932774e-17
2.19910313687e-09
1.12700590309e-08
6.50253170817e-08
4.35227384164e-07
3.97249336498e-06
3.96088610345e-05
3.07589314134e-06
1.11405859189e-07
6.84909049643e-09
2.34482659446e-09
1.19152536142e-09
5.3395418256e-10
2.04255492743e-10
6.17274597861e-11
1.4344816415e-11
2.5597770127e-12
3.52318421702e-13
3.6667271437e-14
2.4947044564e-15
9.95281866494e-17
1.56263492563e-09
7.05484504367e-09
3.74936485013e-08
2.47443097276e-07
2.37019050575e-06
3.34009870304e-05
0.000392836656763
8.95620265924e-06
2.69700083321e-07
1.51429435191e-08
2.16363456956e-09
6.34602165816e-10
2.33782495403e-10
7.48451185616e-11
1.86976461038e-11
3.57739995278e-12
5.25505937345e-13
5.80520662342e-14
4.16909635729e-15
1.77154340101e-16
1.45795780455e-09
6.84691294455e-09
4.04880781553e-08
3.07007624352e-07
3.23904745711e-06
5.53708461183e-05
0.000843710211792
1.79095795063e-05
4.78784203768e-07
2.1069266268e-08
3.06288982023e-09
7.7902884847e-10
2.69967645983e-10
8.95734204202e-11
2.38525842896e-11
4.88389991245e-12
7.65654127615e-13
8.98243062791e-14
6.81576991677e-15
3.09014904724e-16
1.82611452147e-09
8.91280932737e-09
5.37773189312e-08
3.99809875254e-07
3.91266348239e-06
6.33955243457e-05
0.000982980342976
2.16045545958e-05
5.20869700714e-07
2.12567958561e-08
3.33111017256e-09
8.81026740675e-10
3.04963614889e-10
1.05331335047e-10
2.97872186026e-11
6.51726932799e-12
1.09015586997e-12
1.35869927969e-13
1.09011915112e-14
5.28104981735e-16
2.33697783598e-09
1.08939663313e-08
6.12216402697e-08
4.13819236026e-07
3.57429804161e-06
4.75734638251e-05
0.000683613361168
1.90651200481e-05
4.89750038282e-07
1.97093790638e-08
3.1133318911e-09
9.12420782941e-10
3.3126290542e-10
1.20544077502e-10
3.63511080727e-11
8.50339900636e-12
1.51772408247e-12
2.00995974212e-13
1.70605630999e-14
8.8411064349e-16
2.56122665064e-09
1.07777108478e-08
5.37494182429e-08
3.16782725463e-07
2.32586898017e-06
2.47640604801e-05
0.000316577727364
0.000149099244785
3.31018694888e-06
9.75562544573e-08
6.96450398223e-09
1.23389345962e-09
3.7774066403e-10
1.36689278228e-10
4.35103758082e-11
1.08652771364e-11
2.06800471891e-12
2.90977463351e-13
2.6135318301e-14
1.44998340997e-15
2.32992787508e-09
8.53243081275e-09
3.6377922362e-08
1.78737937572e-07
1.04763997998e-06
8.03061568249e-06
7.99610311551e-05
0.000330152446785
7.20733052302e-06
1.94484106502e-07
1.10025097053e-08
1.69040897564e-09
4.476613782e-10
1.55500748469e-10
5.13006072427e-11
1.36133309059e-11
2.75973449842e-12
4.1244227961e-13
3.92045481209e-14
2.33008851168e-15
2.05080758327e-09
6.76387512054e-09
2.62829540731e-08
1.2031643075e-07
6.75468631168e-07
5.00914002853e-06
5.86002391242e-05
0.000657695097044
1.43851937283e-05
3.36894319559e-07
1.34775772569e-08
2.02314111572e-09
5.15481181773e-10
1.75334028103e-10
5.95489775678e-11
1.67311100489e-11
3.60869635148e-12
5.72662522299e-13
5.76088877176e-14
3.67002999864e-15
2.10441091673e-09
6.75747556705e-09
2.64175902738e-08
1.25964602271e-07
7.51330279891e-07
5.93426859083e-06
7.49839153284e-05
0.000951194247104
2.26857432425e-05
4.96063849042e-07
1.68462031394e-08
2.27381842521e-09
5.71153834193e-10
1.93793698148e-10
6.79436077384e-11
2.01796800104e-11
4.62781959034e-12
7.79527471795e-13
8.29851290074e-14
5.66915736775e-15
2.58713364275e-09
8.26504443147e-09
3.2403413615e-08
1.54376066091e-07
9.02388044954e-07
6.80581391506e-06
8.22968082472e-05
0.0010111798072
3.00347596809e-05
6.67619453428e-07
2.12839518584e-08
2.48309786582e-09
6.13027948902e-10
2.09273943131e-10
7.61995433982e-11
2.39012808333e-11
5.82646185209e-12
1.04147534629e-12
1.17306671918e-13
8.59640975916e-15
3.391109941e-09
1.04805283606e-08
3.9533600967e-08
1.79212768336e-07
9.80467303588e-07
6.79313451691e-06
7.47736518962e-05
0.000873282084612
0.000113341130226
2.35897482883e-06
6.22349813363e-08
4.37583941061e-09
7.73929689907e-10
2.33240517431e-10
8.49991678565e-11
2.7876564521e-11
7.20952162535e-12
1.36689235236e-12
1.62869600245e-13
1.28066538045e-14
4.32929427627e-09
1.26081802784e-08
4.45915001503e-08
1.88047723727e-07
9.45940647337e-07
5.94063470172e-06
5.68363735587e-05
0.000631108840693
0.000211017248726
4.53982986022e-06
1.11983586662e-07
6.36537591435e-09
9.86910490044e-10
2.65437339804e-10
9.45113970696e-11
3.2059489794e-11
8.77113570078e-12
1.76280236134e-12
2.22178342302e-13
1.87528450368e-14
5.22603778422e-09
1.40877641339e-08
4.59450767295e-08
1.77450787273e-07
8.07541382485e-07
4.52126326898e-06
3.75323300993e-05
0.000390185304817
0.000355595463613
8.04556904059e-06
1.80908579343e-07
7.79333149251e-09
1.14632910828e-09
2.96569540408e-10
1.03788554034e-10
3.63191506629e-11
1.04930141106e-11
2.23408272311e-12
2.97828204826e-13
2.69967474922e-14
6.05739388721e-09
1.49745361629e-08
4.46444324796e-08
1.5655070589e-07
6.38173562657e-07
3.16063546892e-06
2.29383659938e-05
0.000222746821162
0.000549464064066
1.3714254713e-05
2.88801455751e-07
9.28840901537e-09
1.24354998992e-09
3.18719305216e-10
1.11857852613e-10
4.04493620544e-11
1.23549978138e-11
2.78413369026e-12
3.92520135886e-13
3.82284462656e-14
7.01151612001e-09
1.58990224678e-08
4.33406339768e-08
1.38005448114e-07
5.04548806573e-07
2.23145506993e-06
1.45161573978e-05
0.000134514569345
0.000734226175993
2.19382081455e-05
4.55717874051e-07
1.29670684917e-08
1.39127430423e-09
3.36897561203e-10
1.1830544145e-10
4.42391658148e-11
1.43119026524e-11
3.41359171367e-12
5.0902603852e-13
5.32898839973e-14
8.4711784762e-09
1.78275409383e-08
4.50105398491e-08
1.32301234206e-07
4.46162454441e-07
1.85343541448e-06
1.14491470438e-05
0.000105190712802
0.000854002553136
5.32083119613e-05
1.08852814949e-06
2.72735516589e-08
2.01487165071e-09
3.86549772025e-10
1.25868868861e-10
4.77599079261e-11
1.6321324813e-11
4.11944144269e-12
6.49930737309e-13
7.31788426018e-14
1.08991995182e-08
2.16095339574e-08
5.13231279234e-08
1.42085157359e-07
4.57321577886e-07
1.86897716625e-06
1.12649001727e-05
0.000102034711144
0.000909762199336
0.000100546745308
2.15244979212e-06
5.11510091592e-08
2.95114835604e-09
4.6907177781e-10
1.36690995196e-10
5.12372608968e-11
1.83514490064e-11
4.89421498001e-12
8.17191001905e-13
9.90194177948e-14
1.47283317481e-08
2.77073398656e-08
6.22403350424e-08
1.63480790294e-07
5.08457006739e-07
2.05353571973e-06
1.1918341531e-05
0.000103103372531
0.000918306898441
0.00015298288305
3.57225658924e-06
8.21027816926e-08
3.87375040427e-09
5.54521894424e-10
1.48988838956e-10
5.46540675706e-11
2.03644040616e-11
5.72575526981e-12
1.01183673357e-12
1.32021783217e-13
2.03931226904e-08
3.64558906583e-08
7.75588793756e-08
1.94277734235e-07
5.89228981925e-07
2.35407580936e-06
1.31013085721e-05
0.000103664136955
0.000898468231106
0.000214301512292
6.36894078732e-06
1.41658628327e-07
5.33487871913e-09
6.55000097724e-10
1.62248596407e-10
5.79549385962e-11
2.23210564307e-11
6.59879248453e-12
1.2340310644e-12
1.73461435123e-13
2.82397262943e-08
4.79284029487e-08
9.65730999541e-08
2.31544742936e-07
6.87262890991e-07
2.69901259915e-06
1.430516528e-05
0.000103711596467
0.000866558622841
0.000278326025836
1.06514668581e-05
2.71978732363e-07
8.62588547384e-09
8.38412858469e-10
1.81862870507e-10
6.15795783422e-11
2.42236650568e-11
7.49863884397e-12
1.48327139943e-12
2.24657488462e-13
3.83849517806e-08
6.19096742702e-08
1.18575606598e-07
2.74271466469e-07
8.01587918648e-07
3.08734017912e-06
1.55751347744e-05
0.000104136346549
0.000834772543777
0.000335015073916
1.75869124772e-05
5.44355622493e-07
1.61721164543e-08
1.22023045891e-09
2.18334901322e-10
6.67452622199e-11
2.61719421928e-11
8.4170252233e-12
1.75854126539e-12
2.86900151238e-13
5.04960838039e-08
7.78252745607e-08
1.43093368679e-07
3.23616067931e-07
9.38725558825e-07
3.54305845925e-06
1.70282683671e-05
0.000105617574069
0.000808444997012
0.000381011606631
2.90064652424e-05
1.08927003866e-06
3.33605204323e-08
2.01217059022e-09
2.88304573164e-10
7.56934556564e-11
2.8433037686e-11
9.36223032473e-12
2.05874907863e-12
3.6133332763e-13
6.36246777528e-08
9.48096457701e-08
1.70220659071e-07
3.82916890539e-07
1.10988368133e-06
4.09894226906e-06
1.87794795784e-05
0.000108535345308
0.000789667232938
0.000414903811732
4.25877269641e-05
1.94470246099e-06
6.61576352869e-08
3.33694576119e-09
4.02951699069e-10
9.05366706437e-11
3.13958013737e-11
1.03659325531e-11
2.38368883427e-12
4.48871239806e-13
7.65053572786e-08
1.12430181548e-07
2.01950350582e-07
4.60154713576e-07
1.33791741522e-06
4.82517303732e-06
2.1091482587e-05
0.000114014481521
0.000778751990817
0.000429527768914
5.55007719327e-05
3.08738703549e-06
1.21399955014e-07
5.53042489602e-09
5.76927391552e-10
1.13341092014e-10
3.55221980301e-11
1.14851023718e-11
2.73526399047e-12
5.5020914298e-13
8.94772781007e-08
1.34217398102e-07
2.50042032969e-07
5.90232015134e-07
1.73447264825e-06
6.13895598438e-06
2.58227172262e-05
0.000132061230585
0.000775126828912
0.000431747942157
6.68301884445e-05
4.52586325471e-06
2.0924562055e-07
9.19459262326e-09
8.36717199559e-10
1.46631316932e-10
4.13179678422e-11
1.27982270119e-11
3.11838808164e-12
6.65958375573e-13
1.07302565926e-07
1.71523670527e-07
3.41849291203e-07
8.43298593492e-07
2.49877936761e-06
8.67455010812e-06
3.52165298087e-05
0.000171126975096
0.000759564993125
0.0004238593731
7.6323700154e-05
6.21620770739e-06
3.41026799668e-07
1.55261149746e-08
1.23759458595e-09
1.94556347006e-10
4.93521067766e-11
1.4399386827e-11
3.54140003863e-12
7.96897653994e-13
1.40476023127e-07
2.43514859865e-07
5.15610888838e-07
1.30145905207e-06
3.81660178802e-06
1.2845504473e-05
4.99368158138e-05
0.000229032046948
0.000736671659229
0.000407653967153
8.35826264392e-05
8.12878934878e-06
5.32970262601e-07
2.67683909301e-08
1.85231231558e-09
2.61382998547e-10
6.00983064107e-11
1.63812216842e-11
4.0160030566e-12
9.44493523824e-13
2.05385631363e-07
3.76448209068e-07
8.17602913479e-07
2.05122922371e-06
5.84980466896e-06
1.89059580269e-05
6.99395211287e-05
0.000301257454393
0.000709188890912
0.00038477327928
8.81316120446e-05
1.01337994272e-05
8.023020372e-07
4.62201948755e-08
2.93999781429e-09
3.63763416202e-10
7.465493941e-11
1.88652540859e-11
4.55901672632e-12
1.11181093752e-12
3.2538081366e-07
6.0577969892e-07
1.30701386438e-06
3.19743879813e-06
8.78560782358e-06
2.71513203238e-05
9.53479351504e-05
0.000384560102322
0.000675595061844
0.000356780299687
8.97744864359e-05
1.20783994291e-05
1.13523198941e-06
7.69453336704e-08
4.80367711035e-09
5.22602460496e-10
9.46952413033e-11
2.20088536595e-11
5.1950800375e-12
1.30517289302e-12
5.36003559626e-07
9.84775647117e-07
2.07155532891e-06
4.89381085895e-06
1.28987307949e-05
3.80297876574e-05
0.000126474328461
0.000467820021417
0.000633724465552
0.000324880222303
8.85492655595e-05
1.37599159264e-05
1.50634345832e-06
1.2207383508e-07
7.96893081421e-09
7.65762151166e-10
1.22574974576e-10
2.60307860612e-11
5.96252853056e-12
1.53674877451e-12
9.79389591478e-07
1.76660231966e-06
3.63141362851e-06
8.35533782737e-06
2.14008040577e-05
6.11591220925e-05
0.000195978638731
0.000537315873112
0.000582106880091
0.000290344687235
8.47509172636e-05
1.49847456363e-05
1.87819318196e-06
1.84080449727e-07
1.31699583801e-08
1.13791917795e-09
1.60644831102e-10
3.11757357675e-11
6.91996898668e-12
1.8284735258e-12
1.89248438817e-06
3.31757356973e-06
6.60451053997e-06
1.46693998274e-05
3.61352358081e-05
9.87671112538e-05
0.000298886852511
0.000577768732405
0.000520781416465
0.000254285726491
7.88088690985e-05
1.56294344494e-05
2.22199376986e-06
2.5830349797e-07
2.09284874085e-08
1.68739921943e-09
2.11359729134e-10
3.77028658605e-11
8.15486024162e-12
2.21808760311e-12
3.87720607678e-06
6.5900387023e-06
1.26887977075e-05
2.71995025602e-05
6.44668842523e-05
0.00016857257476
0.000410623740998
0.000580779198849
0.00045232893155
0.000217894994184
7.12402438063e-05
1.5657037136e-05
2.50928776259e-06
3.3728047517e-07
3.22880816102e-08
2.51899225728e-09
2.79676118168e-10
4.60003382049e-11
9.80062463378e-12
2.7679255471e-12
8.35631764563e-06
1.37354485952e-05
2.55044743056e-05
5.25871914108e-05
0.000119390466081
0.00028489424109
0.000497200816807
0.00054523218269
0.000380057922993
0.000182090189311
6.25411405468e-05
1.50942555513e-05
2.71328841814e-06
4.13855469626e-07
4.74191806683e-08
3.73592651366e-09
3.71953744541e-10
5.65342572848e-11
1.20515344528e-11
3.59797676044e-12
1.94067745978e-05
3.10117960295e-05
5.58394410775e-05
0.000111278826789
0.000231466005768
0.000406691123155
0.000527582321124
0.000480762495594
0.000312085243834
0.000150838702925
5.46805600544e-05
1.4475944348e-05
2.90747330575e-06
4.9685178005e-07
6.72177817486e-08
5.63704750208e-09
4.87345074524e-10
6.87129849146e-11
1.50613665657e-11
4.91398099097e-12
9.23931992429e-27
1.77032530407e-26
1.19115574378e-26
2.01097816511e-26
3.25965899742e-26
3.87237589066e-26
1.18171229441e-25
1.02506565208e-25
4.05764314542e-25
2.60616166974e-25
1.2807367121e-24
6.57109125249e-25
3.77192751376e-24
1.63621623023e-24
1.04990281394e-23
4.01338652732e-24
2.79047398721e-23
9.69814844618e-24
7.14628625041e-23
2.31296421533e-23
1.77617445758e-22
5.45544818189e-23
4.30613570725e-22
1.27424889158e-22
1.02177487483e-21
2.94930660381e-22
2.37849789651e-21
6.76606428508e-22
5.4407651456e-21
1.5386290401e-21
1.22447993085e-20
3.46817039206e-21
2.71354826822e-20
7.74782321698e-21
5.92422532857e-20
1.7149846925e-20
1.27438336293e-19
3.75981247932e-20
2.70027777999e-19
8.16126143159e-20
5.63319269886e-19
1.75154265339e-19
1.15635871159e-18
3.70998897268e-19
2.33415424801e-18
7.74565279866e-19
4.63015284382e-18
1.59227663739e-18
9.02079044834e-18
3.22019572416e-18
1.72488675805e-17
6.40423505131e-18
3.23544741758e-17
1.25065760619e-17
5.94998237073e-17
2.39549510043e-17
1.07217331433e-16
4.4960370205e-17
1.89240087745e-16
8.26305055297e-17
3.27116447491e-16
1.48646852076e-16
5.5382173358e-16
2.61714021405e-16
9.18615376166e-16
4.51035530303e-16
1.49357264878e-15
7.61166002412e-16
2.38228977373e-15
1.25868580081e-15
3.73067661653e-15
2.04101301054e-15
5.73904443361e-15
3.24732189626e-15
8.67567074695e-15
5.07162955082e-15
1.28939806049e-14
7.77884822437e-15
1.88532652532e-14
1.17241302944e-14
2.71369293765e-14
1.73730141392e-14
3.84609730207e-14
2.53174071548e-14
5.36729902097e-14
3.62837131864e-14
7.37464514563e-14
5.11318181753e-14
9.97625512031e-14
7.08390996045e-14
1.32859808371e-13
9.64578098012e-14
1.74141833489e-13
1.29034826613e-13
2.24573257665e-13
1.69511863934e-13
2.84907070986e-13
2.18641253337e-13
3.55714664878e-13
2.76996516122e-13
4.37542849509e-13
3.45108281196e-13
5.3134986808e-13
4.23878029971e-13
6.39285173982e-13
5.15325092495e-13
7.66217858454e-13
6.24110412306e-13
9.21943198379e-13
7.59653673502e-13
1.12384129012e-12
9.38267650217e-13
1.4031986754e-12
1.18991522917e-12
1.80992305618e-12
1.56056141361e-12
2.43850432715e-12
2.12937643206e-12
3.69939470548e-12
3.43734003045e-12
)
;

boundaryField
{
    inletfuel
    {
        type            fixedValue;
        value           uniform 0;
    }
    inletair
    {