/*--------------------------------*- C++ -*----------------------------------*\
  =========                 |
  \\      /  F ield         | OpenFOAM: The Open Source CFD Toolbox
   \\    /   O peration     | Website:  https://openfoam.org
    \\  /    A nd           | Version:  dev
     \\/     M anipulation  |
\*---------------------------------------------------------------------------*/
FoamFile
{
    version     2.0;
    format      ascii;
    class       volScalarField;
    location    "0.3";
    object      O2;
}
// * * * * * * * * * * * * * * * * * * * * * * * * * * * * * * * * * * * * * //

dimensions      [0 0 0 0 0 0 0];

internalField   nonuniform List<scalar> 
1629
(
1.47260516372e-09
1.51884304601e-09
1.38924795011e-09
1.89304273482e-07
2.98970366752e-07
6.00404913929e-07
1.23630956081e-05
3.28904552437e-05
0.000146372773578
0.000535305832165
0.00245257967362
0.0235033444818
0.00195137069073
0.00724684546386
0.0419684656785
0.0046944806834
0.0146370221038
0.0582543393767
0.00930755697621
0.0243541799178
0.0709051173855
0.0162221257191
0.0352704263772
0.07938116617
0.0254151091346
0.046069761227
0.084673471041
0.0363064610337
0.056049940288
0.0883134578526
0.0479088175889
0.0650394866505
0.0913621006406
0.059203334934
0.0730654370373
0.094180953772
0.0694418581707
0.0801291901914
0.0967291604491
0.0782261590531
0.0861876100719
0.098904541305
0.0854234281708
0.0911879195949
0.100622960405
0.0910745596006
0.0951349503736
0.101893219515
0.0953270556414
0.0980997595349
0.10274942185
0.0983714680563
0.100187575499
0.103216537601
0.100395159451
0.101506330974
0.103305235621
0.101557446498
0.102148628984
0.103015976359
0.101985536166
0.102191036625
0.102351644794
0.101782308054
0.101701573266
0.101329529182
0.101032668607
0.100741630783
0.09997554115
0.0998082187983
0.0993664284936
0.0983182006753
0.0981734912263
0.0976286690643
0.0963894654688
0.096187350454
0.0955776740668
0.0942208721961
0.0938977142056
0.0932522498143
0.0918333773178
0.0913405025869
0.0906802594893
0.0892390910927
0.0885454566565
0.0878855627462
0.086450884816
0.0855441550034
0.0848963317213
0.0834910470603
0.0823713721856
0.0817452110139
0.0803885903236
0.0790590454183
0.0784615695078
0.0771677702929
0.0756345655977
0.075070040565
0.0738474774072
0.0721236032515
0.0715941734843
0.0704469781765
0.0685498620544
0.0680563204579
0.0669860402491
0.064931612447
0.064473687768
0.0634797624265
0.0612823075304
0.0608588909637
0.0599390032897
0.0576140186638
0.057223448246
0.056374107639
0.0539401524138
0.0535805222398
0.0527977273246
0.0502745312437
0.0499438821506
0.0492235286231
0.0466284783039
0.0463247941041
0.0456626492328
0.0430100629367
0.0427312928632
0.0421230259204
0.039424709307
0.0391688442227
0.0386101981521
0.0358759191158
0.0356410867954
0.0351280897663
0.0323652830714
0.0321498193042
0.0316789408356
0.0288919714213
0.0286944536295
0.0282626821078
0.0254533805649
0.0252727002155
0.0248777073074
0.0220479641513
0.0218834773679
0.0215239526616
0.0186811857776
0.0185329145411
0.0182090024281
0.0153756920955
0.0152444769745
0.0149580915851
0.0121846067944
0.0120720143808
0.0118266040758
0.009200695071
0.00910846442293
0.00890777180308
0.00654784719928
0.0064768941613
0.00632278627604
0.00434622214047
0.0042956915298
0.00418614519603
0.00266550154352
0.00263258029439
0.00256134262174
0.00149793111613
0.00147856671465
0.00143675215944
0.000767426199851
0.000757388772513
0.000735780907223
0.000361690946743
0.000357398046425
0.000348222486714
0.000166915836422
0.000165859086981
0.000163698143896
9.3011976076e-05
9.38509470189e-05
9.5843097842e-05
8.62392284481e-05
8.87736700775e-05
9.45664738692e-05
0.000135583766301
0.00014098422523
0.000153278985336
0.000282413801992
0.000294088979135
0.000320610064145
0.168085100617
0.150931565151
0.136860551928
0.128970075617
0.123138432902
0.118669009098
0.115616757296
0.113893508923
0.112797544305
0.111753196263
0.110592609569
0.109306196048
0.108063625595
0.106909746713
0.105799605473
0.104658057266
0.103407592617
0.101993442225
0.100398082541
0.0986205259789
0.0966647698281
0.0945408092787
0.0922595747505
0.0898204743719
0.0872175788135
0.0844523858845
0.0815419754205
0.078512093558
0.075380759013
0.0721595714875
0.0688625670426
0.0655066010636
0.0621043200055
0.058664421622
0.055195735878
0.0517102435536
0.0482214997233
0.0447404751533
0.0412749618867
0.0378305801344
0.0344116219693
0.0310209176361
0.0276591085321
0.0243255472818
0.0210216054248
0.0177568984692
0.014559081741
0.0114855456975
0.00862972450716
0.00611000359309
0.00403540743103
0.00246365439363
0.00137963423714
0.000706435083171
0.000335932649013
0.000161063105127
9.90416397444e-05
0.000103329688465
0.000171753939906
0.000360299547602
0.231999994097
0.231999991647
0.231999995173
0.231999998143
0.231999999459
0.231999999872
0.231999999975
0.231999999996
0.231999999999
0.232
0.232
0.232
0.232
0.232
0.232
0.232
0.232
0.232
0.232
0.232
0.231999093166
0.231999664806
0.231999894486
0.231999972264
0.23199999392
0.231999998851
0.231999999808
0.231999999971
0.231999999996
0.232
0.232
0.232
0.232
0.232
0.232
0.232
0.232
0.232
0.232
0.232
0.231905742513
0.231991897884
0.231998814495
0.231999794391
0.231999964751
0.231999994254
0.231999999114
0.231999999872
0.231999999983
0.231999999998
0.232
0.232
0.232
0.232
0.232
0.232
0.232
0.232
0.232
0.232
0.225300718022
0.231831269217
0.231991073464
0.231998953554
0.231999838475
0.231999973754
0.231999995842
0.231999999379
0.231999999915
0.23199999999
0.231999999999
0.232
0.232
0.232
0.232
0.232
0.232
0.232
0.232
0.232
0.218543877866
0.231567870458
0.231978040131
0.231997068489
0.231999426559
0.231999885704
0.231999979519
0.231999996744
0.231999999548
0.231999999946
0.231999999994
0.231999999999
0.232
0.232
0.232
0.232
0.232
0.232
0.232
0.232
0.209057169024
0.23065306918
0.231936865982
0.231989556758
0.231997421431
0.231999405135
0.231999886892
0.231999982051
0.231999997569
0.231999999715
0.231999999971
0.231999999997
0.232
0.232
0.232
0.232
0.232
0.232
0.232
0.232
0.198617442315
0.226749375017
0.231305723198
0.231893743385
0.231980903314
0.231996303311
0.231999358254
0.23199990471
0.23199998773
0.231999998614
0.231999999862
0.231999999988
0.231999999999
0.232
0.232
0.232
0.232
0.232
0.232
0.232
0.178399998775
0.116640827646
0.216871822604
0.230224513673
0.231820933183
0.231978463381
0.231996953408
0.231999581053
0.231999947723
0.231999994159
0.231999999419
0.231999999949
0.231999999996
0.232
0.232
0.232
0.232
0.232
0.232
0.232
0.164005086833
0.137348399116
0.21438760141
0.229549351374
0.231673704004
0.231952078312
0.231992175532
0.231998782136
0.231999833191
0.231999980068
0.231999997915
0.231999999809
0.231999999985
0.231999999999
0.232
0.232
0.232
0.232
0.232
0.232
0.154112419633
0.158083857831
0.212460056515
0.229318669326
0.231553527003
0.231919481362
0.231984525047
0.231997203926
0.23199956519
0.231999942567
0.231999993505
0.231999999366
0.231999999946
0.231999999996
0.232
0.232
0.232
0.232
0.232
0.232
0.147469554363
0.166922317282
0.208430614832
0.22800080493
0.231207117371
0.23184785207
0.231969089557
0.231993913442
0.231998957116
0.231999849369
0.231999981595
0.231999998081
0.231999999828
0.231999999987
0.231999999999
0.232
0.232
0.232
0.232
0.232
0.141164681876
0.153503189812
0.124306423656
0.216706137044
0.229445989579
0.231588578021
0.231927121814
0.231986110897
0.231997535258
0.231999622796
0.231999950964
0.231999994573
0.231999999486
0.231999999958
0.231999999997
0.232
0.232
0.232
0.232
0.232
0.134478241611
0.1352364545
0.0445209300745
0.20442793237
0.227232982499
0.231176213303
0.231851051075
0.231970993571
0.231994581416
0.231999116851
0.231999877721
0.231999985632
0.231999998561
0.231999999876
0.231999999991
0.231999999999
0.232
0.232
0.232
0.232
0.127789238842
0.120624631442
0.021209125988
0.194166847297
0.225215093899
0.23068519423
0.231741504707
0.231946372466
0.23198922065
0.231998101509
0.231999717373
0.231999964534
0.231999996231
0.231999999659
0.231999999974
0.231999999998
0.232
0.232
0.232
0.232
0.121460708032
0.109398767017
0.0231975037207
0.181295376327
0.221455776647
0.229749588312
0.23154554175
0.231904002674
0.231979749406
0.231996180461
0.231999389398
0.231999918043
0.231999990736
0.231999999114
0.231999999928
0.231999999995
0.232
0.232
0.232
0.232
0.116250963451
0.104839569744
0.0603980529764
0.114612628993
0.210931200833
0.227711654001
0.231163386984
0.231828350805
0.231963247551
0.231992700143
0.231998755102
0.231999821597
0.231999978542
0.231999997827
0.231999999814
0.231999999986
0.231999999999
0.232
0.232
0.232
0.112021886354
0.101513715098
0.0677606836072
0.048829865003
0.199994507566
0.225512697655
0.23068371882
0.231721917164
0.231938136427
0.231986955074
0.231997616227
0.231999634159
0.231999953067
0.231999994957
0.231999999545
0.231999999965
0.231999999998
0.232
0.232
0.232
0.108487406251
0.0982977414611
0.0680534415982
0.0201284317239
0.189751813584
0.223485048413
0.23017323346
0.231590430542
0.231903479522
0.231978200102
0.231995706785
0.231999291408
0.231999902752
0.231999988889
0.231999998941
0.231999999915
0.231999999994
0.232
0.232
0.232
0.105410228076
0.0951241445307
0.0673041632643
0.0155055301001
0.177284542794
0.22075029186
0.229441942522
0.231400200025
0.231852758415
0.231964816912
0.231992580716
0.231998686615
0.231999807344
0.231999976595
0.231999997641
0.231999999802
0.231999999986
0.231999999999
0.232
0.232
0.102600303479
0.0919439638249
0.065644435649
0.0157563682764
0.16175847813
0.215141832235
0.227865623447
0.23103128478
0.231765333858
0.231942837609
0.231987362895
0.231997628245
0.231999630514
0.23199995243
0.231999994939
0.231999999555
0.231999999968
0.231999999998
0.232
0.232
0.0999410499909
0.0888700302866
0.0639737166792
0.0184686200469
0.0865945477652
0.201151344458
0.224706700477
0.230340477071
0.231613261896
0.231906407296
0.231978675952
0.231995799994
0.231999309472
0.231999906153
0.231999989484
0.231999999029
0.231999999926
0.231999999995
0.232
0.232
0.0973945801731
0.0861278367504
0.0632870305846
0.0259639522889
0.0329127451429
0.18778684832
0.221482137991
0.229512130767
0.23140701493
0.231853391291
0.231965240659
0.231992789282
0.231998747512
0.231999820323
0.2319999788
0.231999997947
0.231999999837
0.23199999999
0.232
0.232
0.0949308321751
0.0837071523352
0.0630706819708
0.0323700393799
0.0151104040319
0.175000451457
0.218247016651
0.228562174998
0.231143372536
0.23178065192
0.231945554769
0.231988057235
0.231997802254
0.231999666629
0.231999958537
0.231999995782
0.23199999965
0.231999999977
0.231999999999
0.232
0.0925141164987
0.0814950149068
0.0628037088256
0.036531919069
0.0138842396655
0.159658857864
0.212752285706
0.22691382877
0.230715827566
0.231669921883
0.231915914338
0.231980682776
0.231996248161
0.23199939897
0.231999921204
0.231999991576
0.231999999269
0.23199999995
0.231999999998
0.232
0.0901119463952
0.0793796167681
0.0621760912583
0.0382448284468
0.0108450031373
0.104504401539
0.201168849789
0.223985349488
0.230001800118
0.231496205328
0.23187089692
0.231969303642
0.231993744022
0.231998944342
0.231999854249
0.23199998362
0.231999998509
0.231999999893
0.231999999995
0.232
0.0876940487256
0.0772857221991
0.0611961526513
0.0386562646454
0.00886504138978
0.056274913824
0.188702377618
0.22072126195
0.229129431407
0.231268221581
0.231808932253
0.231952789857
0.231989882926
0.231998199132
0.231999737858
0.231999968998
0.231999997039
0.231999999777
0.231999999989
0.232
0.0852185664925
0.0751352210676
0.0599104673351
0.0385316237981
0.00956371518681
0.0236261687184
0.175255815846
0.217286521247
0.228169111017
0.230996798562
0.231729875558
0.23193021201
0.231984207432
0.231997024705
0.231999542232
0.231999942918
0.231999994268
0.231999999549
0.231999999976
0.231999999999
0.0826489334276
0.0728887599339
0.0584253167512
0.0383598753092
0.0120034758326
0.0131954333845
0.16014075444
0.213060740106
0.226928605636
0.23063961313
0.231624908661
0.231899282806
0.231976000834
0.231995217159
0.231999221843
0.231999897599
0.231999989176
0.231999999108
0.231999999951
0.231999999998
0.0799701756662
0.0705527687249
0.0568493848137
0.0382742989823
0.0150246038366
0.0119826670409
0.142830258127
0.206340216077
0.224842565582
0.230070151765
0.231469317488
0.231854795419
0.231963979433
0.231992450849
0.23199870495
0.231999820375
0.23199998002
0.231999998273
0.231999999901
0.231999999997
0.077193440859
0.068162354449
0.0552435329042
0.0381137004619
0.0172093752539
0.00881616096071
0.0923096437284
0.194207091688
0.221512962903
0.229190871038
0.231239027147
0.231790722899
0.231946463682
0.23198826542
0.231997884023
0.231999691199
0.231999963884
0.231999996728
0.231999999804
0.231999999993
0.0743402653918
0.0657476499144
0.0536294507535
0.0378125988874
0.018627580335
0.00592362502361
0.0541743755227
0.181195749492
0.217787987506
0.228126832307
0.230943395224
0.231705464163
0.231922157122
0.231982146977
0.231996615582
0.231999480293
0.231999936088
0.231999993928
0.231999999619
0.231999999985
0.0714165237267
0.0632901832611
0.0519396156814
0.0372514844364
0.0193843135716
0.00456822805279
0.0281479962287
0.166824845525
0.2135498046
0.226860973514
0.230576019927
0.231596066552
0.23188962143
0.231973494032
0.23199471294
0.231999145074
0.231999889382
0.231999988973
0.231999999276
0.23199999997
0.0684191736066
0.0607599710207
0.0501160545158
0.0363939542409
0.0196614325928
0.00429493557168
0.0171100212517
0.150068574482
0.207644685204
0.225046077757
0.230062709101
0.231448124607
0.231845583378
0.231961371647
0.231991910818
0.231998623782
0.231999812686
0.231999980405
0.231999998653
0.231999999942
0.0653520746582
0.0581511669536
0.0481612442735
0.035298536485
0.0196010649938
0.0044371101035
0.0116042524434
0.118888160937
0.198692173962
0.222413028803
0.229333464015
0.231244954912
0.231785854288
0.231944546911
0.231987849341
0.231997828793
0.231999689409
0.231999965916
0.231999997547
0.231999999887
0.0622270883286
0.0554781671478
0.0461147634355
0.034070271528
0.0194072920893
0.00488035457707
0.00804470578522
0.0891426205086
0.18820539828
0.219244997416
0.228423661111
0.230986653441
0.231708620618
0.231921995662
0.231982128915
0.231996646956
0.231999495956
0.231999941977
0.231999995628
0.231999999786
0.0590526856003
0.0527471893999
0.0439892389025
0.0327324821605
0.0190778775772
0.00535882819688
0.00575225713848
0.0625522308044
0.176073444485
0.215545096273
0.227343871738
0.230673788761
0.23161283185
0.231892852467
0.231974325936
0.231994939317
0.231999200158
0.23199990338
0.231999992374
0.231999999604
0.0558335962224
0.0499569713925
0.0417781917521
0.0312666522803
0.0185531015938
0.00566735964192
0.00410764877322
0.0418226358913
0.162316518122
0.211012935973
0.225993552663
0.230282472111
0.231493131222
0.231855543355
0.231963868475
0.231992523105
0.231998757766
0.231999842532
0.23199998698
0.23199999928
0.0525755881544
0.0471083114601
0.0394775911086
0.0296623053251
0.0178165954348
0.00577781967737
0.00312461357156
0.0289321841399
0.14621800421
0.205023106501
0.224156058838
0.229759717801
0.231338097165
0.231807276624
0.231949914882
0.231989145728
0.231998106869
0.231999748381
0.231999978213
0.231999998718
0.0492892375116
0.0442106498784
0.0370983326479
0.02793697092
0.0169050052626
0.00573353008186
0.00249371236819
0.0203839450116
0.124162969479
0.197041863049
0.221682403193
0.229061113939
0.231136567999
0.231745036651
0.231931476907
0.231984489025
0.231997164472
0.231999605257
0.231999964224
0.23199999776
0.0459879740451
0.0412786525241
0.0346600032708
0.0261222907869
0.0158742582052
0.00559480471958
0.00202963400679
0.0141231410174
0.102779846494
0.187607806518
0.218636043355
0.228184374515
0.230884664933
0.23166703277
0.231907699613
0.231978208804
0.231995828087
0.231999392033
0.231999942342
0.231999996155
0.0426824997422
0.0383225741976
0.0321738233522
0.0242332683212
0.0147456895511
0.0053619416478
0.0017204641748
0.00994943571756
0.0838011361454
0.176816990442
0.214958428096
0.227109996919
0.230577132924
0.231571610732
0.231877781688
0.23196993735
0.231993975155
0.231999081167
0.231999908824
0.231999993522
0.0393803373997
0.0353489721347
0.0296459496056
0.0222776408155
0.0135315580093
0.00504318447027
0.0015223649555
0.00736927193957
0.0678625319748
0.164844976251
0.210478655748
0.2257708234
0.230197489168
0.231455072382
0.231840571624
0.2319592194
0.231991452498
0.231998636558
0.231999858462
0.231999989282
0.0360872650469
0.0323636565614
0.0270829359988
0.0202648840963
0.0122468005799
0.00464995189908
0.00138875136783
0.0058121385215
0.0553235867076
0.152044119681
0.204967579184
0.224052488248
0.22971564605
0.231310864418
0.231794351491
0.23194545909
0.231988063269
0.231998010449
0.231999784029
0.231999982563
0.0328083369333
0.0293730950082
0.0244937537562
0.0182088392125
0.010911383262
0.00419705217815
0.00128682762851
0.00487815473551
0.0461091111591
0.137880558318
0.19821808864
0.221835218097
0.229096068559
0.23113102401
0.23173710537
0.231927958759
0.231983567178
0.231997141458
0.231999675682
0.231999972079
0.0295476545039
0.0263839195364
0.0218891116529
0.0161268301893
0.00954870987217
0.00370009019018
0.001182766691
0.00420441874089
0.0387182853249
0.123835727489
0.190359016303
0.219059405684
0.228310606316
0.230908583761
0.231667034284
0.231906028138
0.231977696694
0.231995955032
0.231999520539
0.231999955977
0.0263074387095
0.0234016277345
0.019279903972
0.0140380325542
0.00818458546142
0.00318049912491
0.00107282514397
0.00367153352933
0.032775055527
0.111387880412
0.181661176433
0.215670370388
0.227327247843
0.230635899285
0.231582389281
0.231878998697
0.231970165029
0.231994363864
0.231999302263
0.231999931655
0.0230892249439
0.0204325425049
0.0166802042598
0.0119669212796
0.0068493204461
0.00266511277164
0.000978893396021
0.00326833943271
0.028204340833
0.100845149376
0.172470752787
0.21158896155
0.226093029048
0.230300344049
0.231480638978
0.231846091934
0.231960648034
0.231992264791
0.231999000253
0.231999895512
0.0198976440395
0.0174884541027
0.0141121673507
0.0099459829706
0.00557463799684
0.00217205636181
0.000888437601019
0.00298813873621
0.0248961067764
0.0921926214743
0.16322655677
0.206753749877
0.224531755891
0.229881761542
0.231357847246
0.231806298299
0.2319487612
0.231989533845
0.231998588426
0.231999842596
0.0167468480006
0.0145929623029
0.0116109383877
0.00801722614301
0.00439386430136
0.00171981730528
0.000808792994705
0.00282598484745
0.0227197333114
0.0854862039518
0.154196869898
0.201167742311
0.222555481869
0.229352514894
0.231208595454
0.231758376085
0.231934059815
0.231986024672
0.231998034255
0.231999766216
0.0136697480756
0.0117887641775
0.00922792327407
0.00623032998169
0.00333864486042
0.00132403335625
0.000747120987777
0.00276677542311
0.0214212215006
0.0801626207221
0.145880325916
0.194980750771
0.220087080248
0.22867857121
0.231026057711
0.231700903349
0.2319160581
0.231981571683
0.231997298536
0.231999657585
0.0107278307639
0.00914296293284
0.00702981660764
0.00463703205205
0.00243459693505
0.000995438420345
0.000709172444039
0.0027991609917
0.0208513115696
0.0760317342093
0.138613445966
0.188483649276
0.217073838576
0.227817105182
0.23080123978
0.231632180593
0.231894230593
0.231975992718
0.231996335502
0.231999505508
0.00801440888616
0.00674440197312
0.00509041701261
0.00328256544198
0.00169770989901
0.000739711830391
0.00070239599376
0.0029339208719
0.0209886296763
0.0732248791809
0.132679795975
0.181968261766
0.213495268245
0.226712115913
0.2305212519
0.231549931298
0.231867979531
0.231969087296
0.231995092712
0.231999296091
0.00564110848689
0.00468706562639
0.00347463743228
0.00219653769209
0.00113395594943
0.000564404733967
0.000763679092391
0.00335313008122
0.0218414273524
0.0716470201476
0.128110542164
0.175709518545
0.20939148809
0.225296589587
0.230167573446
0.23145096146
0.23183659759
0.231960634754
0.231993511026
0.23199901243
0.00370464711844
0.00304129688659
0.00221889958944
0.00138452615913
0.00073587500382
0.000469742349025
0.000912860786935
0.00408847130014
0.0236346330819
0.0711302711248
0.124572814263
0.170082124431
0.204901604049
0.223499968335
0.22971317466
0.231330600177
0.231799209384
0.231950392509
0.231991524823
0.231998634204
0.00225021718693
0.00182847021902
0.00131941505919
0.000826731214543
0.000485121300359
0.000454061257921
0.00117374336246
0.00518981687303
0.0261583664873
0.0715188028795
0.121939769613
0.165324111209
0.200201485508
0.221255793953
0.229117549048
0.231181720175
0.23175466649
0.23193809172
0.231989061644
0.231998136831
0.00125545094143
0.00101440296499
0.000733642934951
0.00048257560621
0.000356591804124
0.000518841050434
0.00158383443131
0.00675886085779
0.0293420167028
0.0727477545628
0.120210241738
0.161572059593
0.195452136436
0.21853237791
0.228326655681
0.230994223737
0.23170153889
0.231923453671
0.231986043336
0.231997490032
0.000643109809185
0.000523743596855
0.000394101032731
0.000301697651429
0.000327189328555
0.000678540769863
0.00221348142668
0.00900322801507
0.033248462344
0.074772212568
0.119320066661
0.158582497064
0.191003038711
0.21539146501
0.227279638612
0.23075455566
0.231638119672
0.231906217198
0.231982386348
0.231996654991
0.000309907063286
0.000264763741501
0.000227615100424
0.000237524341091
0.000385453211797
0.00096832557143
0.00317291827362
0.012172671677
0.0379682529034
0.0775692786393
0.119215727231
0.156271311777
0.187139792301
0.211935899822
0.225913493198
0.230443672617
0.231562197878
0.231886134662
0.231977993779
0.231995579157
0.000156255251876
0.000154357124973
0.000175386971409
0.000265024037868
0.000555385079166
0.00149852248808
0.00478589113084
0.0164708615113
0.0434819358128
0.0810615923608
0.11983227041
0.154630592406
0.184019005024
0.208291597766
0.224180273943
0.230035474982
0.231470850237
0.231862968831
0.231972739562
0.231994188251
0.000107406333152
0.00013533311515
0.000206233252935
0.000390673462541
0.000901730385419
0.00243687568932
0.00745077610116
0.022044351646
0.0497369287793
0.0851548646614
0.121082975086
0.153600355895
0.181466130323
0.204747783343
0.222086013357
0.229495882593
0.231360046824
0.231836469821
0.231966443064
0.231992374354
0.000124907121972
0.000187836799519
0.000330808662261
0.00067660429776
0.0015814370437
0.00414687809413
0.0116519844901
0.0289596453933
0.0566790665469
0.0897609747941
0.122878268837
0.153109149279
0.179392010003
0.201604400336
0.219602680084
0.22877132219
0.231223123487
0.231806257999
0.231958827803
0.231989980945
0.00021690020354
0.000345768504205
0.000630091156432
0.00129203974796
0.002944681534
0.00733797745886
0.0178120014691
0.0371638264305
0.0641868566448
0.0947575794257
0.125096870568
0.153053700039
0.177720771532
0.198889790667
0.216819841792
0.227791219687
0.231049375581
0.231771820078
0.231949494354
0.231986743121
0.00045678932387
0.000727944787152
0.00131075745249
0.00262084566089
0.00570201173164
0.0125579649444
0.0256244455262
0.0457662037827
0.0712878013529
0.0991998730801
0.126897206782
0.152769367569
0.175999445505
0.196298799838
0.213871713279
0.226487158295
0.230838702288
0.231734679711
0.231938197473
0.231982269216
0.232
0.232
0.232
0.232
0.232
0.232
0.232
0.232
0.232
0.232
0.232
0.232
0.232
0.232
0.232
0.232
0.232
0.232
0.232
0.232
0.232
0.232
0.232
0.232
0.232
0.232
0.232
0.232
0.232
0.232
0.232
0.232
0.232
0.232
0.232
0.232
0.232
0.232
0.232
0.232
0.232
0.232
0.232
0.232
0.232
0.232
0.232
0.232
0.232
0.232
0.231999999999
0.232
0.231999999999
0.232
0.231999999997
0.231999999999
0.231999999995
0.231999999998
0.231999999989
0.231999999996
0.231999999977
0.231999999991
0.231999999955
0.231999999981
0.231999999913
0.231999999961
0.231999999834
0.231999999923
0.231999999689
0.231999999851
0.231999999431
0.231999999718
0.231999998978
0.231999999476
0.231999998197
0.231999999046
0.231999996879
0.231999998295
0.231999994689
0.231999997008
0.231999991112
0.231999994843
0.231999985362
0.231999991261
0.231999976278
0.231999985441
0.231999962163
0.231999976152
0.231999940584
0.231999961586
0.231999908114
0.231999939138
0.23199986005
0.231999905157
0.231999790119
0.231999854657
0.231999690167
0.231999781
0.231999549778
0.2319996755
0.231999355771
0.231999526883
0.231999091345
0.23199932043
0.231998734698
0.23199903664
0.231998256445
0.231998648713
0.231997615686
0.231998119033
0.231996756138
0.231997396967
0.231995596069
0.231996408672
0.231994025589
0.231995060679
0.231991865177
0.23199321942
0.231988277386
0.231989746198
)
;

boundaryField
{
    inletfuel
    {
        type            fixedValue;
        value           uniform 0;
    }
    inletair
    {
        type            fixedValue;
        value           uniform 0.232;
    }
    outlet
    {
        type            zeroGradient;
    }
    axis
    {
        type            empty;
    }
    leftside
    {
        type            zeroGradient;
    }
    burnerwall
    {
        type            zeroGradient;
    }
    front
    {
        type            wedge;
    }
    back
    {
        type            wedge;
    }
}


// ************************************************************************* //
