/*--------------------------------*- C++ -*----------------------------------*\
  =========                 |
  \\      /  F ield         | OpenFOAM: The Open Source CFD Toolbox
   \\    /   O peration     | Website:  https://openfoam.org
    \\  /    A nd           | Version:  dev
     \\/     M anipulation  |
\*---------------------------------------------------------------------------*/
FoamFile
{
    version     2.0;
    format      ascii;
    class       volScalarField;
    location    "0.3";
    object      OH;
}
// * * * * * * * * * * * * * * * * * * * * * * * * * * * * * * * * * * * * * //

dimensions      [0 0 0 0 0 0 0];

internalField   nonuniform List<scalar> 
1629
(
2.83666546847e-22
2.7608456908e-22
1.98997252565e-22
5.47145100693e-20
8.50997426481e-20
1.64067834967e-19
5.37606974889e-18
1.40280400184e-17
6.49846936298e-17
3.41930752161e-16
1.4540504891e-15
1.45722351115e-14
1.26823137086e-14
5.20157102267e-14
3.78910635683e-13
5.98282278194e-13
2.80065250617e-12
1.83670504778e-11
1.98775788907e-11
1.11371516742e-10
1.31351663809e-09
9.23985921308e-10
7.82480298373e-09
9.97634402528e-08
2.12036621414e-09
1.16847573852e-08
8.3715003249e-08
4.24306577803e-09
1.48998060726e-08
6.1043523047e-08
7.87508488904e-09
1.84965263908e-08
4.77209352276e-08
1.28145161889e-08
2.26613012554e-08
4.54105911297e-08
1.86917843621e-08
2.86020491437e-08
5.76030729488e-08
2.38965116172e-08
3.2518202182e-08
5.74202683021e-08
2.75261523872e-08
3.42490930606e-08
5.24544159132e-08
2.89954829178e-08
3.37144398107e-08
4.5555949313e-08
2.8436853497e-08
3.17957547142e-08
4.10358229488e-08
2.61297816782e-08
2.83686555296e-08
3.48904223671e-08
2.27234636631e-08
2.40548074762e-08
2.79611246868e-08
1.90677289027e-08
1.98502005739e-08
2.21696079457e-08
1.58505261668e-08
1.64509972476e-08
1.83084510907e-08
1.33596113185e-08
1.40470397634e-08
1.63035640205e-08
1.13514581517e-08
1.20583847337e-08
1.42822171907e-08
9.57656207681e-09
1.01739256617e-08
1.19334641293e-08
7.99541518339e-09
8.45828862645e-09
9.75979073963e-09
6.69434897466e-09
7.09011524741e-09
8.20444199379e-09
5.76577077459e-09
6.19789639177e-09
7.45942259592e-09
5.1485898286e-09
5.64087640127e-09
7.07132252142e-09
4.66833725766e-09
5.15439523906e-09
6.51614557865e-09
4.21911171771e-09
4.64457146721e-09
5.79581854667e-09
3.8204162841e-09
4.19519938883e-09
5.19771952942e-09
3.56624298496e-09
3.95151636294e-09
4.99309412254e-09
3.55097732444e-09
4.02188416999e-09
5.30403923502e-09
3.75979580122e-09
4.34591620323e-09
5.92417545525e-09
3.98373426889e-09
4.61789603183e-09
6.28295263265e-09
4.12387142515e-09
4.73995501006e-09
6.31941947282e-09
4.33362421451e-09
4.94185615968e-09
6.48148841455e-09
4.88094374769e-09
5.55471908935e-09
7.254081397e-09
5.9900225377e-09
6.82218138459e-09
8.9148152253e-09
7.78819535553e-09
8.86111188049e-09
1.15431176244e-08
1.03157825228e-08
1.16839121784e-08
1.50749817075e-08
1.36218849507e-08
1.53144879802e-08
1.94702684415e-08
1.79206572703e-08
1.99620384329e-08
2.49264099384e-08
2.38775036922e-08
2.63358627243e-08
3.22615115582e-08
3.30505599586e-08
3.61138675358e-08
4.34421313188e-08
4.82554488397e-08
5.22787081718e-08
6.18388624748e-08
7.41139909895e-08
7.96524773321e-08
9.27272664529e-08
1.17884098292e-07
1.25717241865e-07
1.4408614245e-07
1.90690177626e-07
2.01855862326e-07
2.27867198407e-07
3.08843803217e-07
3.24678008871e-07
3.61338409899e-07
4.94756053789e-07
5.1694299596e-07
5.68038431478e-07
7.77726722723e-07
8.08472869459e-07
8.78988795687e-07
1.19873402777e-06
1.24153604373e-06
1.33946813881e-06
1.82357263719e-06
1.88480896276e-06
2.0248219952e-06
2.75730515832e-06
2.84726765132e-06
3.0528681063e-06
4.17644085007e-06
4.31044330693e-06
4.6163325112e-06
6.3929352729e-06
6.59363028714e-06
7.05084620482e-06
1.00229796264e-05
1.03288303154e-05
1.10240370497e-05
1.66568698268e-05
1.71641242299e-05
1.83159652425e-05
2.87366535066e-05
2.95833864873e-05
3.15015204081e-05
5.25928349418e-05
5.41045121708e-05
5.75238393965e-05
0.000100595261109
0.000103367566495
0.000109626611506
0.000204364765877
0.000209945873934
0.000222540535462
1.1959369105e-13
1.9806295658e-12
8.99281699015e-11
1.21784169156e-08
1.14226540403e-06
4.93362758613e-07
1.89659868287e-07
8.97701436868e-08
9.24635853867e-08
1.73959817129e-07
1.42758635541e-07
1.03055471162e-07
7.31412323905e-08
6.76027862594e-08
5.39388843396e-08
3.8749067625e-08
2.84542843881e-08
2.35025512374e-08
2.29585109156e-08
2.0277540393e-08
1.61933125884e-08
1.26932771993e-08
1.0718614469e-08
1.04171164715e-08
1.03433838275e-08
9.43934688645e-09
8.13423241628e-09
7.19750975685e-09
7.0972768957e-09
7.90599646513e-09
9.05968011864e-09
9.45596982496e-09
9.2179819772e-09
9.25330985838e-09
1.02974154245e-08
1.26427173715e-08
1.62715840809e-08
2.09687095234e-08
2.6579171832e-08
3.32833554594e-08
4.2089201237e-08
5.54420507669e-08
7.73149136479e-08
1.13656145976e-07
1.73152700285e-07
2.6855944547e-07
4.18081448331e-07
6.46396689341e-07
9.86360880166e-07
1.48797369762e-06
2.23688499868e-06
3.36399738152e-06
5.07821167473e-06
7.73873247734e-06
1.20657494402e-05
2.00388264655e-05
3.43582254636e-05
6.2603165821e-05
0.000118893579468
0.000241171693486
2.20020457477e-16
1.1016619513e-15
2.74557409981e-15
4.10040731434e-15
3.54118661765e-15
1.94560604281e-15
7.46400641469e-16
2.12955976947e-16
4.75452560256e-17
8.55339674807e-18
1.25902366571e-18
1.53262747891e-19
1.55606163031e-20
1.32793723741e-21
9.60545929515e-23
5.94987305379e-24
3.20193306005e-25
1.52312991052e-26
6.52006634018e-28
1.48746212109e-29
3.44611832228e-15
1.7705550892e-14
5.31004276698e-14
8.83688351476e-14
7.22412756604e-14
3.52269222947e-14
1.17461149422e-14
2.90870879101e-15
5.69457922466e-16
9.06442719354e-17
1.19134675487e-17
1.3078654685e-18
1.21067260699e-19
9.53381867925e-21
6.44888829623e-22
3.79260894498e-23
1.97371867037e-24
9.28361861678e-26
3.93251473261e-27
8.95750404715e-29
3.60168732624e-14
1.66692754846e-13
6.13560139249e-13
1.12533497002e-12
8.61665855481e-13
3.74594722065e-13
1.10238036202e-13
2.42893656888e-14
4.28017951056e-15
6.17637061215e-16
7.41753378842e-17
7.50402102448e-18
6.45865037138e-19
4.77383780324e-20
3.062262917e-21
1.72836523599e-22
8.7577591786e-24
4.10125347704e-25
1.74064059411e-26
3.74992154503e-28
1.89690822327e-13
1.67377961338e-12
6.62192208662e-12
1.15547725234e-11
8.13226993657e-12
3.21667803326e-12
8.61887857857e-13
1.75424517691e-13
2.87516871645e-14
3.88680514553e-15
4.4056678025e-16
4.23710085212e-17
3.49076054631e-18
2.4862816273e-19
1.54743012288e-20
8.53991534952e-22
4.27242966296e-23
2.00480902202e-24
8.71935121862e-26
2.25512425993e-27
5.06713640256e-12
4.71057903285e-11
1.03607315486e-10
1.32020012527e-10
7.94971925271e-11
2.78881674612e-11
6.71499505333e-12
1.25045400664e-12
1.89161829133e-13
2.38912427609e-14
2.56065348801e-15
2.35391899058e-16
1.87115748433e-17
1.29648641951e-18
7.90786949311e-20
4.30793209654e-21
2.1444137852e-22
1.01255921968e-23
4.5278087208e-25
1.46704858446e-26
4.78816503625e-10
6.02651168153e-09
2.87728523852e-09
1.734592697e-09
7.92090259706e-10
2.36399975217e-10
5.03402506466e-11
8.40674422215e-12
1.16233868596e-12
1.36763453572e-13
1.38865338368e-14
1.2262026536e-15
9.46798817382e-17
6.42972224331e-18
3.87218176e-19
2.09611835052e-20
1.04314565503e-21
4.95940741849e-23
2.25092295101e-24
8.23160840174e-26
1.17020628721e-07
2.09922337443e-06
1.82204124647e-07
3.49016197576e-08
8.92450737962e-09
1.92057968719e-09
3.39170030727e-10
4.979387258e-11
6.27810859736e-12
6.92694769993e-13
6.735052728e-14
5.78241614331e-15
4.38905207611e-16
2.95336211551e-17
1.77261366981e-18
9.60504264884e-20
4.79961575048e-21
2.29509786025e-22
1.04127524027e-23
4.00007258878e-25
2.26989667962e-05
0.00252265973272
5.86356278961e-05
1.86812445091e-06
1.32593536418e-07
1.37499604776e-08
1.7603388286e-09
2.25614728351e-10
2.67228795941e-11
2.86827132517e-12
2.76267459865e-13
2.37261130776e-14
1.81105175027e-15
1.22919547082e-16
7.45342387604e-18
4.08224891634e-19
2.05964450632e-20
9.90429287634e-22
4.44642734296e-23
1.70714993809e-24
4.51867537881e-06
0.000225721493715
1.02241624671e-05
5.98264822945e-07
1.00849874384e-07
1.87595526492e-08
3.3462966598e-09
5.3768542857e-10
7.40495371964e-11
8.78614064801e-12
9.07285677531e-13
8.2019809222e-14
6.51620862556e-15
4.56925133272e-16
2.84699854508e-17
1.59460980946e-18
8.1791995279e-20
3.96182917774e-21
1.75176718081e-22
6.51505531784e-24
7.90991626307e-07
1.24036209034e-05
1.39112914298e-06
1.65347449738e-07
5.72947249419e-08
1.86563871814e-08
4.59677043852e-09
9.43219977786e-10
1.57068611864e-10
2.15030637509e-11
2.47342200435e-12
2.4288331398e-13
2.05880263508e-14
1.52031767214e-15
9.87531106769e-17
5.71549136749e-18
3.00013548842e-19
1.46775979093e-20
6.38658172566e-22
2.26445669309e-23
1.78040586387e-07
6.83077408638e-07
3.03090444486e-06
1.52332266706e-07
3.73000399445e-08
1.94260313647e-08
6.19600336065e-09
1.53288198362e-09
2.99196124438e-10
4.67223301553e-11
5.98596665038e-12
6.42247605016e-13
5.85732784198e-14
4.59539844935e-15
3.1370666807e-16
1.88863345101e-17
1.01941834017e-18
5.05067989679e-20
2.16548757887e-21
7.27468029544e-23
5.03717181745e-07
1.97626451189e-05
0.00157481706346
3.84709148996e-05
1.54113714396e-06
1.31498429906e-07
1.81322399186e-08
3.3099991351e-09
6.14672313014e-10
9.99902072342e-11
1.37015668843e-11
1.5786764904e-12
1.5399271754e-13
1.28316055313e-14
9.22580979941e-16
5.79467684937e-17
3.22540280045e-18
1.62193598203e-19
6.86857606875e-21
2.18507979035e-22
1.42386926041e-06
5.17480300247e-05
0.00462437533564
7.22271026274e-05
2.20384199715e-06
1.74627450134e-07
2.90747444376e-08
5.74531030357e-09
1.13830445495e-09
1.98488742624e-10
2.92185276188e-11
3.61153287803e-12
3.76461122997e-13
3.33285062453e-14
2.52741583067e-15
1.65944910083e-16
9.54656433028e-18
4.88395735015e-19
2.049601478e-20
6.19523488132e-22
8.12214605164e-07
1.7752560009e-05
0.000959447615208
1.93134033303e-05
8.15108723484e-07
9.16133958888e-08
2.79124349138e-08
7.33948958221e-09
1.73185987285e-09
3.44222438973e-10
5.6197285208e-11
7.57349185068e-12
8.50930500712e-13
8.04581390751e-14
6.45930361146e-15
4.44701219208e-16
2.65183677867e-17
1.38450545849e-18
5.78286748597e-20
1.67117230128e-21
4.13398927549e-07
6.38710041624e-06
0.000241204049572
7.44526072486e-06
3.49184703576e-07
4.52065118293e-08
2.2617260784e-08
8.03799985206e-09
2.29768330525e-09
5.30561447327e-10
9.77262949138e-11
1.45429070087e-11
1.77691955745e-12
1.80574499954e-13
1.54198664811e-14
1.11746580685e-15
6.93221433729e-17
3.70781904692e-18
1.54947293596e-19
4.31648268884e-21
2.14855030117e-07
2.47773520115e-06
6.92947227655e-05
0.00106538348125
2.44460269278e-05
8.78471616855e-07
7.21798544678e-08
1.29490699212e-08
3.244877834e-09
7.89115351127e-10
1.5938448543e-10
2.60207613703e-11
3.4592094617e-12
3.78812086e-13
3.45175656642e-14
2.64180432495e-15
1.71096780922e-16
9.41414683377e-18
3.95839865563e-19
1.07303463508e-20
2.43404705092e-07
3.94416265137e-06
0.000124301764462
0.00422489274791
6.55857692568e-05
1.77632827643e-06
1.13673415983e-07
1.89319833567e-08
4.49392807316e-09
1.12855637125e-09
2.46312870638e-10
4.38467494323e-11
6.3318326251e-12
7.47659101657e-13
7.28249760068e-14
5.90085382184e-15
4.00239840067e-16
2.27454534772e-17
9.67781216491e-19
2.57814072987e-20
1.67690574417e-07
1.98752838045e-06
3.99231521264e-05
0.0013413059219
2.45768090338e-05
8.16765302885e-07
6.5071588838e-08
1.80805175952e-08
5.24172477673e-09
1.47634467659e-09
3.55877510238e-10
6.95376470902e-11
1.09369574894e-11
1.39481681705e-12
1.45476661552e-13
1.2506083197e-14
8.90862645596e-16
5.24880782587e-17
2.27234843227e-18
6.00807962527e-20
9.55084952885e-08
8.16526077747e-07
1.18172074694e-05
0.000431878652397
8.32284400073e-06
2.99677636773e-07
3.02522023991e-08
1.4141317081e-08
5.34767727059e-09
1.7575742902e-09
4.78731521114e-10
1.03802971782e-10
1.78746275381e-11
2.46889024475e-12
2.7627201898e-13
2.52488821232e-14
1.89383286452e-15
1.16090143862e-16
5.14038289045e-18
1.36194524475e-19
6.00085900307e-08
4.42013816476e-07
6.15214637681e-06
0.000202319200683
8.51151772156e-06
2.86304447149e-07
2.22584687405e-08
1.07823475851e-08
5.20260149879e-09
1.98173495453e-09
6.09862299172e-10
1.47242400703e-10
2.78167536366e-11
4.16743996458e-12
5.0100668449e-13
4.87553183275e-14
3.85921557329e-15
2.46903761789e-16
1.12353680486e-17
3.01023965187e-19
5.02675416059e-08
3.92222207756e-07
5.66483663099e-06
0.000156849891053
0.00179161160299
4.28619383296e-05
1.49462703952e-06
9.40753191953e-08
1.26867858146e-08
2.92038386769e-09
8.17914684363e-10
2.06096041403e-10
4.19065221471e-11
6.76855310272e-12
8.72706375327e-13
9.04505069563e-14
7.56651106598e-15
5.06553708569e-16
2.37893538764e-17
6.49955959013e-19
5.85360174812e-08
5.24685329901e-07
7.52780637046e-06
0.000178211632807
0.00404709895953
7.26211109543e-05
2.04171578493e-06
1.06434079718e-07
1.74250367367e-08
3.99498049529e-09
1.09056154429e-09
2.83625370398e-10
6.14137751438e-11
1.0634036427e-11
1.46695742391e-12
1.6184956409e-13
1.43213609498e-14
1.00534998164e-15
4.89070881211e-17
1.3729328222e-18
4.87861105248e-08
3.52038740553e-07
3.73835616158e-06
5.92877161193e-05
0.00121907582303
2.73001287264e-05
9.04551095295e-07
6.02050210315e-08
1.54612637885e-08
4.45902057599e-09
1.33773263223e-09
3.73653139485e-10
8.68962139034e-11
1.6153507436e-11
2.38388177961e-12
2.8002542354e-13
2.62332039737e-14
1.93457533629e-15
9.7803318041e-17
2.84021010847e-18
3.42152212252e-08
1.94084976987e-07
1.64306650062e-06
2.04129999371e-05
0.000428733902741
1.28022259279e-05
4.65361717907e-07
3.35500147533e-08
1.14097927214e-08
4.37730517787e-09
1.51133574152e-09
4.66498636645e-10
1.18054264165e-10
2.36865190607e-11
3.74714844029e-12
4.69140415645e-13
4.65861939181e-14
3.61548579741e-15
1.90515291708e-16
5.75785437081e-18
2.43185691107e-08
1.20046882864e-07
9.57514158211e-07
1.1473854831e-05
0.000274003548326
0.000805417029657
1.95265424397e-05
6.70370350045e-07
4.57824163418e-08
7.35126047916e-09
1.93173453375e-09
5.84568589046e-10
1.56721560734e-10
3.37126386625e-11
5.71159275227e-12
7.62451152738e-13
8.03328005507e-14
6.57154795998e-15
3.61881841247e-16
1.14425316375e-17
2.08028966798e-08
1.07334794659e-07
9.10895839433e-07
1.11011554445e-05
0.000256591535798
0.00296643570438
5.88112104721e-05
1.65308779577e-06
8.04704973227e-08
1.15694701992e-08
2.60255482936e-09
7.39559505102e-10
2.04616608673e-10
4.67621887877e-11
8.4631322514e-12
1.20424434111e-12
1.34712630588e-13
1.16312197466e-14
6.70888653589e-16
2.22950468579e-17
2.26388226091e-08
1.301978963e-07
1.12238175623e-06
1.29794542634e-05
0.000248761668401
0.00418919521897
7.86907756024e-05
1.88323326681e-06
8.04313780674e-08
1.31084524522e-08
3.14033839704e-09
9.02716319343e-10
2.59107836386e-10
6.30384786694e-11
1.21938919148e-11
1.85043940491e-12
2.1994751161e-13
2.00677250655e-14
1.21481436798e-15
4.25955003882e-17
2.3305350399e-08
1.27268469763e-07
9.63729654613e-07
9.34327229456e-06
0.000138001424447
0.00225126671685
5.20289444103e-05
1.27889327516e-06
5.80380805339e-08
1.15506653521e-08
3.30230159334e-09
1.0296908599e-09
3.14610980908e-10
8.22399413669e-11
1.70753262176e-11
2.76810036668e-12
3.49986109393e-13
3.37823163238e-14
2.14999126278e-15
7.98032586269e-17
2.01889032878e-08
9.54552903382e-08
6.04361909102e-07
4.75829687872e-06
5.36993983511e-05
0.000722087034794
2.65387626961e-05
7.99940908705e-07
4.0185072936e-08
8.70060147857e-09
3.13897988032e-09
1.10323093765e-09
3.67396032065e-10
1.03780503961e-10
2.3234125553e-11
4.03342002376e-12
5.43198382484e-13
5.55319103058e-14
3.72115882789e-15
1.46619810067e-16
1.6244476285e-08
6.76897828474e-08
3.81734671951e-07
2.72549659521e-06
2.76254150338e-05
0.000385893730692
0.00105056303642
2.40628414352e-05
7.29393457681e-07
4.16545929657e-08
5.81229386985e-09
1.41102158534e-09
4.38895728703e-10
1.28882532274e-10
3.08636954586e-11
5.73401377955e-12
8.23050325491e-13
8.91934310972e-14
6.30096129348e-15
2.6414336475e-16
1.40214267894e-08
5.63520140272e-08
3.1421010132e-07
2.26655147609e-06
2.27191224041e-05
0.000355004020417
0.00292348873963
6.09393861423e-05
1.58937929958e-06
6.61103328771e-08
8.94285727325e-09
1.89526961631e-09
5.37136172619e-10
1.59367801667e-10
4.02261768835e-11
7.96856013945e-12
1.21847409524e-12
1.40038094121e-13
1.04398665334e-14
4.66496781586e-16
1.43549166062e-08
5.99131813837e-08
3.40588851705e-07
2.45675565634e-06
2.35829480529e-05
0.000366609850255
0.00438681623414
9.35547655344e-05
2.16134796268e-06
8.12590146975e-08
1.10394716094e-08
2.3662598526e-09
6.49304986838e-10
1.95490534159e-10
5.15118780026e-11
1.08396636456e-11
1.76387361234e-12
2.1500489712e-13
1.69267281728e-14
8.07382556821e-16
1.68604249625e-08
7.21135633429e-08
4.01370017441e-07
2.75785213968e-06
2.44006042341e-05
0.000326665586066
0.00409882514366
0.000107462028042
2.60786722416e-06
9.59954565808e-08
1.21913491233e-08
2.73864066292e-09
7.59874281095e-10
2.33621584384e-10
6.4549098264e-11
1.44306078463e-11
2.49816690173e-12
3.22953859641e-13
2.68607670646e-14
1.36914185779e-15
1.95588710848e-08
8.06653975913e-08
4.17610769741e-07
2.6180476307e-06
2.06477697856e-05
0.000233582022062
0.00277120993347
0.000355375893862
8.14771600433e-06
2.50223182315e-07
1.97123338271e-08
3.54599093403e-09
9.06727897464e-10
2.74016534001e-10
7.91167446162e-11
1.88144370634e-11
3.46364806317e-12
4.74840273357e-13
4.17318260155e-14
2.27490941251e-15
1.95908941747e-08
7.3228320949e-08
3.35322736292e-07
1.82492978538e-06
1.21422235812e-05
0.00010804374202
0.00101596295849
0.00103652965925
2.22741648265e-05
5.88019054603e-07
3.24655399452e-08
4.87156297599e-09
1.11754065051e-09
3.22535131725e-10
9.52925981548e-11
2.40279452257e-11
4.70152200689e-12
6.83540488575e-13
6.34918918685e-14
3.70403523723e-15
1.8110776522e-08
6.16222776056e-08
2.56631656155e-07
1.27771183365e-06
7.78372236566e-06
6.12968494765e-05
0.000546453777375
0.0023624600531
5.11382271041e-05
1.17256445383e-06
4.40883399977e-08
6.14451354139e-09
1.3490043981e-09
3.77587070126e-10
1.12873413265e-10
3.00457170472e-11
6.24677700722e-12
9.63414082833e-13
9.46110287417e-14
5.91096840046e-15
1.760023856e-08
5.71542523661e-08
2.30549105839e-07
1.13019862419e-06
6.81947030269e-06
5.2380616032e-05
0.000511975081895
0.00381172194498
8.9992570299e-05
1.93217287846e-06
6.17895802138e-08
7.53989406226e-09
1.59362100616e-09
4.36114176378e-10
1.31626737502e-10
3.68084256096e-11
8.12813380946e-12
1.33015411874e-12
1.38147592023e-13
9.24928830292e-15
1.94194081117e-08
6.23513353494e-08
2.49657140457e-07
1.21249178263e-06
7.15564933105e-06
5.26113850204e-05
0.000526942062699
0.00456541953206
0.000131885909247
2.88034937603e-06
8.70710150312e-08
9.10731468406e-09
1.85067707482e-09
4.96557320466e-10
1.51829925823e-10
4.42638663367e-11
1.03686120403e-11
1.80065423349e-12
1.97828381089e-13
1.42021399005e-14
2.37444034681e-08
7.52286689935e-08
2.94445179092e-07
1.38207314175e-06
7.76626055804e-06
5.34080158721e-05
0.000509025687291
0.00455039158626
0.000316507321456
6.74036192329e-06
1.79677308254e-07
1.3394669497e-08
2.30104016023e-09
5.74816483816e-10
1.74700687404e-10
5.23844556108e-11
1.2979507625e-11
2.39163879433e-12
2.78021648582e-13
2.14139681584e-14
3.01792239796e-08
9.28769910604e-08
3.49111662031e-07
1.5583027533e-06
8.23386024067e-06
5.24733288375e-05
0.000448987949681
0.00398775343142
0.000718604875077
1.52562244602e-05
3.61957027372e-07
1.99271933816e-08
2.95116469655e-09
6.76251372131e-10
2.00296523778e-10
6.10223805396e-11
1.59410430523e-11
3.11647779524e-12
3.83494259978e-13
3.17141215066e-14
3.8018840787e-08
1.12058719146e-07
3.99728715501e-07
1.68019176798e-06
8.27455721899e-06
4.83826149175e-05
0.000367847591522
0.00312402666944
0.00134523631538
3.01359422562e-05
6.49346967049e-07
2.60488280655e-08
3.55124812293e-09
7.82242353344e-10
2.25821590307e-10
6.98890412069e-11
1.92100343368e-11
3.98355225065e-12
5.1914510602e-13
4.61360383563e-14
4.67747948265e-08
1.30932375141e-07
4.40725543382e-07
1.73716505768e-06
7.94055702874e-06
4.23831171477e-05
0.000285153681344
0.00224470147061
0.00215850119929
5.350512715e-05
1.08386667114e-06
3.16967441998e-08
3.95514576026e-09
8.66840572248e-10
2.49236532878e-10
7.84916509708e-11
2.27761425928e-11
4.99939581919e-12
6.90046716551e-13
6.59520452705e-14
5.6595903919e-08
1.49736148427e-07
4.74245012746e-07
1.74838779721e-06
7.39095582412e-06
3.58248114868e-05
0.000212017206345
0.00150200287442
0.00295220098759
8.46743245911e-05
1.69375245205e-06
4.3942328143e-08
4.46514534367e-09
9.38495644898e-10
2.69147870947e-10
8.62932376509e-11
2.6527851249e-11
6.16224353459e-12
9.01226840368e-13
9.27102248298e-14
6.90451462933e-08
1.72514531531e-07
5.14493537142e-07
1.77637899671e-06
6.95810099414e-06
3.07677955158e-05
0.000161789029474
0.00102862403493
0.00352751496738
0.000153147450248
3.07431059322e-06
7.21480815495e-08
5.51560594058e-09
1.03266346224e-09
2.86923807524e-10
9.30945560023e-11
3.03291643485e-11
7.45862875462e-12
1.15696021362e-12
1.28226984923e-13
8.78822968145e-08
2.08081345852e-07
5.87132586519e-07
1.91083526692e-06
7.01144366129e-06
2.88920668407e-05
0.000140455218236
0.000848607188781
0.00390738408678
0.000318404761171
6.52448787763e-06
1.38345455399e-07
7.6946753237e-09
1.19757255488e-09
3.085410442e-10
9.92675719436e-11
3.40597804185e-11
8.86144095737e-12
1.45969533278e-12
1.74506162018e-13
1.1860445172e-07
2.66608753302e-07
7.12866109307e-07
2.19211466066e-06
7.58072619788e-06
2.94940237974e-05
0.000135487734039
0.000791880060222
0.00413044805638
0.000549113719234
1.21971477884e-05
2.42618477741e-07
1.03552362529e-08
1.39509960783e-09
3.33178626723e-10
1.04930059594e-10
3.76047133767e-11
1.03310186255e-11
1.80931550633e-12
2.33625959554e-13
1.68769377221e-07
3.59826220696e-07
9.10294354856e-07
2.64403748276e-06
8.64670983502e-06
3.20210613884e-05
0.000140617959615
0.000776836162297
0.00423429888562
0.000827798595251
2.36278302917e-05
4.48412888031e-07
1.461271764e-08
1.64970238595e-09
3.61377346072e-10
1.10265665432e-10
4.08766523922e-11
1.18210637984e-11
2.2032004292e-12
3.07653274212e-13
2.48674126684e-07
5.01530316576e-07
1.19668782682e-06
3.2770706372e-06
1.01391768101e-05
3.57773911914e-05
0.000149924450424
0.000778778541499
0.00425841031606
0.00112326796033
4.07399263616e-05
9.16010053469e-07
2.41822053389e-08
2.13046850304e-09
4.06343333314e-10
1.1652507048e-10
4.39031643515e-11
1.32892291605e-11
2.63669824353e-12
3.98555044874e-13
3.72884810957e-07
7.10242608185e-07
1.59582628533e-06
4.11992399366e-06
1.20817717065e-05
4.06853135399e-05
0.000162550897358
0.000792312305993
0.00423783395886
0.00139026574523
6.47407566854e-05
1.82854942494e-06
4.45085288799e-08
3.04817124142e-09
4.87063384151e-10
1.26064197297e-10
4.68941547534e-11
1.4709036306e-11
3.10371725241e-12
5.08027353336e-13
5.61754323496e-07
1.01144078881e-06
2.14258927612e-06
5.22869794477e-06
1.45865720107e-05
4.69944326662e-05
0.000179027370975
0.00081861345979
0.00419699679277
0.0016153569417
0.000101577994326
3.56440992606e-06
8.98975355779e-08
4.83039301811e-09
6.32906732728e-10
1.4272777284e-10
5.03371159501e-11
1.60869347358e-11
3.59776370945e-12
6.37257340432e-13
8.42667480341e-07
1.43986364367e-06
2.88838894599e-06
6.69856541492e-06
1.78700615873e-05
5.52582497996e-05
0.000200916877162
0.000863380055241
0.00415122465162
0.00179260025546
0.000157423504864
6.74341365504e-06
1.90111878842e-07
8.14385147005e-09
8.83875174863e-10
1.71320026131e-10
5.50147983941e-11
1.74789879401e-11
4.11420626868e-12
7.86778638337e-13
1.25307295726e-06
2.04724703542e-06
3.9214854675e-06
8.71838410951e-06
2.24151102197e-05
6.69057548397e-05
0.000233288053344
0.000950228702192
0.00410881682575
0.00190616963509
0.00022129270623
1.15630241062e-05
3.83328454035e-07
1.4087364201e-08
1.28839851167e-09
2.17314990024e-10
6.19401396241e-11
1.89972061874e-11
4.65309527082e-12
9.56531217888e-13
1.85510311301e-06
2.93543434404e-06
5.44884336058e-06
1.17948617128e-05
2.9673262817e-05
8.67906792296e-05
0.000295498717231
0.00117493658677
0.00407676503784
0.00196316213858
0.000281981763422
1.78976654893e-05
7.13100918978e-07
2.45012683996e-08
1.90904981405e-09
2.86439356735e-10
7.21779588613e-11
2.0793924645e-11
5.22077349448e-12
1.14612934033e-12
2.76039700803e-06
4.29661633548e-06
7.85896667011e-06
1.68221947219e-05
4.19379411736e-05
0.00012139420034
0.000407470394455
0.00160241712758
0.0039931432171
0.00196856844641
0.000335421537827
2.53024176208e-05
1.21905997475e-06
4.30554242082e-08
2.86427067308e-09
3.86338617901e-10
8.66904291603e-11
2.30284504426e-11
5.82923533558e-12
1.35522592316e-12
4.13115116762e-06
6.37543602672e-06
1.15461266594e-05
2.44095100706e-05
5.97919833867e-05
0.000168629697796
0.00054569165477
0.00205723500832
0.00387178308151
0.00193020871972
0.000378929955864
3.34667219731e-05
1.95462092137e-06
7.71568335073e-08
4.29970447767e-09
5.2190489994e-10
1.05692755876e-10
2.57960091798e-11
6.49248646772e-12
1.58407569839e-12
6.21384626574e-06
9.50886394389e-06
1.6988434581e-05
3.51832226224e-05
8.3678499987e-05
0.00022670948816
0.000697017010072
0.00248017654891
0.00372125744776
0.00185493074291
0.000409742386182
4.20221984182e-05
2.99198334853e-06
1.38112441143e-07
6.83117387657e-09
7.24591522814e-10
1.30123098501e-10
2.91678320419e-11
7.22576952487e-12
1.83444410784e-12
9.42246689154e-06
1.42437900158e-05
2.4952728447e-05
5.02262340831e-05
0.000114970011547
0.000296627131158
0.000860578530063
0.00285333892225
0.00353475550083
0.00174883842896
0.000426408170978
5.0714350173e-05
4.30693486648e-06
2.38514695173e-07
1.12687285177e-08
1.03416329089e-09
1.62138211959e-10
3.32287253785e-11
8.04754183539e-12
2.1113942442e-12
1.46029073337e-05
2.17625920651e-05
3.73021307713e-05
7.2857418936e-05
0.000160461157511
0.000395166632834
0.00109050821204
0.00314185547195
0.00330411891462
0.00161687074042
0.00042859453372
5.89441469985e-05
5.8413590946e-06
3.9325221927e-07
1.92057406606e-08
1.51122343994e-09
2.06494963266e-10
3.82309463398e-11
8.99140298646e-12
2.42630058855e-12
2.42259162311e-05
3.59693061824e-05
6.12297607573e-05
0.000118428321042
0.000258016553997
0.000630954900026
0.00174680682943
0.00336459251075
0.0030373839072
0.00146716630969
0.000417571662511
6.58419334966e-05
7.47464516792e-06
6.1675249026e-07
3.31051884669e-08
2.25274113889e-09
2.66312696345e-10
4.44259991388e-11
1.01126967527e-11
2.80127995463e-12
4.12649004223e-05
6.03374045349e-05
0.000100373715665
0.0001881263741
0.000393965752208
0.000920370445632
0.00237182974485
0.00342740295784
0.00273046495402
0.00130538407193
0.000395193259285
7.05718969237e-05
9.08414929121e-06
8.97096660945e-07
5.50825970259e-08
3.35841751941e-09
3.444434853e-10
5.20673751363e-11
1.14979757812e-11
3.27556657228e-12
7.48450934084e-05
0.000108343008937
0.000177775241352
0.000327946189398
0.00067677749012
0.00156020932752
0.00289804487145
0.00332360907588
0.00239400671496
0.00113775083784
0.000363824633821
7.26426019626e-05
1.05284699941e-05
1.21072265999e-06
8.92307683041e-08
5.06929597101e-09
4.48604109895e-10
6.16485863987e-11
1.32873911995e-11
3.91459054893e-12
0.000141140080021
0.000201314347338
0.000324007547983
0.000584304087314
0.00117330733666
0.00230268735182
0.00319826917912
0.00306332466039
0.00204201304634
0.000969921224493
0.00032607906856
7.19977180135e-05
1.16791065141e-05
1.53382526238e-06
1.36979721195e-07
7.51857862186e-09
5.85156008232e-10
7.37351126032e-11
1.56863565695e-11
4.84506318791e-12
0.000285849615609
0.000406412446683
0.000651107366757
0.00116164079762
0.00202669760083
0.00289851310918
0.00321741722477
0.00270635976743
0.00171760265158
0.000825364745469
0.000292941126131
7.13536453925e-05
1.28870932442e-05
1.90996472339e-06
2.03827274611e-07
1.16970179291e-08
7.53600583014e-10
8.73868104039e-11
1.88299699563e-11
6.28496815819e-12
1.25494074465e-26
2.40381772123e-26
1.61834252846e-26
2.73043592648e-26
4.42585808804e-26
5.2553721943e-26
1.60212858805e-25
1.38944676364e-25
5.49120262451e-25
3.52718719257e-25
1.72965767737e-24
8.87741349952e-25
5.08308251293e-24
2.206215214e-24
1.41196638594e-23
5.4011863698e-24
3.74648389544e-23
1.30300222854e-23
9.58434063628e-23
3.10389522893e-23
2.38146659639e-22
7.31700868685e-23
5.7769616831e-22
1.7094454534e-22
1.37276558362e-21
3.96068708583e-22
3.20280328943e-21
9.10298771417e-22
7.34853744776e-21
2.07542822947e-21
1.65996594086e-20
4.69355763641e-21
3.69450136622e-20
1.05265213895e-20
8.10540293883e-20
2.34061241104e-20
1.75322602057e-19
5.15781123999e-20
3.73805677087e-19
1.12609970149e-19
7.85295691716e-19
2.43265602695e-19
1.62471918e-18
5.19060090332e-19
3.30822461626e-18
1.09256168757e-18
6.62522412855e-18
2.26623210592e-18
1.30412071624e-17
4.62807621054e-18
2.52104147113e-17
9.30070448989e-18
4.78321282463e-17
1.83637642776e-17
8.9008520134e-17
3.55782021263e-17
1.6234368112e-16
6.75662691929e-17
2.90092321218e-16
1.25679800935e-16
5.07757944676e-16
2.2887375504e-16
8.70577922909e-16
4.0798916231e-16
1.46239764946e-15
7.11946018365e-16
2.40774361896e-15
1.21652482185e-15
3.88805491126e-15
2.03660249858e-15
6.16200757665e-15
3.34249581478e-15
9.58842100923e-15
5.38040057062e-15
1.4651745037e-14
8.49695131719e-15
2.19939358463e-14
1.31692477581e-14
3.24518412786e-14
2.00406331319e-14
4.70878760303e-14
2.99569911551e-14
6.71985423501e-14
4.3993097906e-14
9.42990835884e-14
6.34603022349e-14
1.3009184206e-13
8.9891144063e-14
1.76404652048e-13
1.24988870906e-13
2.35065062743e-13
1.7051961717e-13
3.076955809e-13
2.28127726194e-13
3.9548750295e-13
2.99106312115e-13
4.99033568167e-13
3.84187234392e-13
6.18330344636e-13
4.83481508189e-13
7.52963663782e-13
5.96610845629e-13
9.02667741597e-13
7.23244935826e-13
1.06829247733e-12
8.64069042576e-13
1.25367786617e-12
1.0227058931e-12
1.468192735e-12
1.20814070291e-12
1.72965035334e-12
1.4369699562e-12
2.07099849333e-12
1.74050190929e-12
2.54482688278e-12
2.16653709202e-12
3.25095598392e-12
2.79725882406e-12
4.63515175828e-12
4.21486977187e-12
)
;

boundaryField
{
    inletfuel
    {
        type            fixedValue;
        value           uniform 0;
    }
    inletair
    {
        type            fixedValue;
        value           uniform 0;
    }
    outlet
    {