/*--------------------------------*- C++ -*----------------------------------*\
  =========                 |
  \\      /  F ield         | OpenFOAM: The Open Source CFD Toolbox
   \\    /   O peration     | Website:  https://openfoam.org
    \\  /    A nd           | Version:  dev
     \\/     M anipulation  |
\*---------------------------------------------------------------------------*/
FoamFile
{
    version     2.0;
    format      ascii;
    class       volScalarField;
    location    "0.3";
    object      p;
}
// * * * * * * * * * * * * * * * * * * * * * * * * * * * * * * * * * * * * * //

dimensions      [1 -1 -2 0 0 0 0];

internalField   nonuniform List<scalar> 
1629
(
101344.04299
101343.490231
101354.281211
101338.628208
101336.446537
101342.378988
101333.203599
101330.468298
101335.434267
101328.932719
101326.583305
101328.082027
101332.920735
101331.780574
101333.259096
101333.913592
101333.107331
101333.416522
101333.387926
101332.965453
101333.016197
101332.874088
101332.657531
101332.595925
101332.065457
101331.910646
101331.740201
101332.115741
101332.014119
101331.88447
101332.569549
101332.48434
101332.387536
101332.581812
101332.493719
101332.407364
101332.196876
101332.106655
101332.026147
101331.973465
101331.892397
101331.832674
101331.94401
101331.876848
101331.839027
101331.838465
101331.783274
101331.757665
101331.655979
101331.609972
101331.591043
101331.566289
101331.528285
101331.51623
101331.582815
101331.552005
101331.546758
101331.579853
101331.554537
101331.55362
101331.452327
101331.430175
101331.429437
101331.266413
101331.246319
101331.24423
101331.188351
101331.170688
101331.169629
101331.183234
101331.168129
101331.168767
101331.109386
101331.09604
101331.096565
101330.965188
101330.952926
101330.952322
101330.871748
101330.860576
101330.859844
101330.840525
101330.830696
101330.830567
101330.801203
101330.792631
101330.792927
101330.700638
101330.692923
101330.692982
101330.563065
101330.555972
101330.555598
101330.463166
101330.456736
101330.456439
101330.393206
101330.387532
101330.387554
101330.298626
101330.293599
101330.293686
101330.172887
101330.16833
101330.168276
101330.056546
101330.052395
101330.052312
101329.959082
101329.955371
101329.955391
101329.860379
101329.857103
101329.857215
101329.743277
101329.740364
101329.740479
101329.610404
101329.60778
101329.607851
101329.47819
101329.475819
101329.475877
101329.350186
101329.348065
101329.348145
101329.219496
101329.217611
101329.21771
101329.080203
101329.078526
101329.078624
101328.931307
101328.929804
101328.929888
101328.77673
101328.775378
101328.775448
101328.619018
101328.617801
101328.617865
101328.456981
101328.455888
101328.455948
101328.288582
101328.287601
101328.287654
101328.11271
101328.11183
101328.111874
101327.929409
101327.928622
101327.928658
101327.739202
101327.738506
101327.738536
101327.542412
101327.541807
101327.541834
101327.33939
101327.338872
101327.3389
101327.129716
101327.129278
101327.129305
101326.912082
101326.911708
101326.911734
101326.685962
101326.68563
101326.685651
101326.450925
101326.45061
101326.450626
101326.208493
101326.20817
101326.208183
101325.957596
101325.957241
101325.957253
101325.698252
101325.697838
101325.697843
101325.428725
101325.428256
101325.428261
101325.159631
101325.159424
101325.159534
101327.172245
101333.635935
101333.298037
101332.976665
101332.549181
101331.593204
101331.777919
101332.304197
101332.324463
101331.940997
101331.764915
101331.790908
101331.719256
101331.558191
101331.490931
101331.530216
101331.543603
101331.420964
101331.235259
101331.163122
101331.165452
101331.093932
101330.948893
101330.856784
101330.828719
101330.79199
101330.692004
101330.554261
101330.455357
101330.387007
101330.293327
101330.167821
101330.051875
101329.955141
101329.857133
101329.740436
101329.607778
101329.475808
101329.348121
101329.217729
101329.078656
101328.929913
101328.775465
101328.617882
101328.455966
101328.28767
101328.111883
101327.928661
101327.738537
101327.541837
101327.338908
101327.129318
101326.911747
101326.68566
101326.45063
101326.208181
101325.957244
101325.697824
101325.428246
101325.159671
101331.988579
101331.915584
101331.92472
101331.939828
101331.952289
101331.961277
101331.966486
101331.967839
101331.965624
101331.960285
101331.952256
101331.941833
101331.929081
101331.913739
101331.895086
101331.871766
101331.84131
101331.800623
101331.738242
101331.725558
101331.743771
101331.751739
101331.825148
101331.869276
101331.895331
101331.90968
101331.915596
101331.915524
101331.911337
101331.904244
101331.894971
101331.883861
101331.870933
101331.855882
101331.837948
101331.815907
101331.786538
101331.750821
101331.678892
101331.625542
101331.26879
101331.557981
101331.762082
101331.845527
101331.881517
101331.894766
101331.896163
101331.89135
101331.883262
101331.873312
101331.862162
101331.85
101331.836708
101331.821911
101331.804764
101331.784392
101331.755987
101331.724275
101331.645461
101331.542043
101330.323364
101331.51801
101331.774236
101331.865497
101331.894593
101331.897505
101331.890414
101331.879515
101331.867246
101331.854562
101331.841743
101331.828703
101331.815152
101331.800648
101331.784272
101331.765495
101331.738488
101331.709493
101331.628095
101331.466871
101332.335533
101332.030653
101331.96625
101331.959289
101331.937617
101331.911971
101331.889376
101331.869839
101331.852616
101331.837103
101331.82273
101331.808967
101331.795306
101331.781244
101331.765804
101331.748911
101331.724191
101331.699607
101331.619862
101331.555105
101332.494777
101332.414599
101332.244401
101332.096855
101331.992383
101331.928391
101331.887636
101331.858767
101331.836603
101331.818456
101331.802734
101331.788433
101331.774828
101331.761395
101331.747137
101331.732567
101331.711234
101331.695385
101331.630111
101331.666094
101332.684145
101332.827285
101332.46953
101332.170174
101332.012066
101331.927139
101331.876465
101331.842465
101331.8174
101331.797591
101331.781013
101331.766461
101331.753123
101331.740524
101331.727713
101331.715914
101331.698846
101331.694413
101331.649667
101331.74225
101332.251066
101332.450084
101332.111211
101331.974475
101331.934529
101331.887447
101331.847749
101331.817696
101331.793746
101331.774054
101331.757462
101331.7431
101331.730296
101331.718736
101331.707575
101331.698805
101331.686247
101331.692633
101331.667139
101331.780545
101331.128317
101331.129383
101331.489169
101331.726337
101331.819767
101331.822929
101331.806076
101331.785806
101331.765806
101331.747738
101331.731963
101331.718268
101331.706283
101331.695941
101331.686524
101331.680761
101331.672348
101331.687004
101331.676169
101331.789758
101331.407198
101331.395684
101331.667702
101331.771776
101331.798441
101331.786442
101331.771011
101331.753399
101331.735562
101331.719076
101331.704463
101331.691764
101331.680827
101331.67182
101331.664127
101331.661103
101331.656141
101331.676171
101331.675008
101331.779082
101332.017244
101331.9888
101332.155729
101332.009747
101331.865811
101331.787606
101331.749087
101331.72361
101331.70432
101331.688471
101331.674944
101331.663392
101331.653642
101331.646013
101331.639932
101331.639227
101331.63693
101331.659872
101331.664338
101331.755364
101332.078695
101331.974335
101332.141814
101331.946386
101331.804081
101331.749631
101331.715367
101331.688828
101331.669966
101331.655355
101331.643181
101331.632947
101331.624477
101331.618208
101331.613565
101331.614695
101331.61431
101331.638288
101331.645512
101331.722795
101331.71982
101331.501523
101331.506019
101331.554763
101331.616956
101331.655709
101331.655008
101331.642251
101331.629956
101331.618823
101331.608827
101331.600222
101331.593119
101331.588148
101331.584736
101331.587217
101331.588072
101331.611723
101331.619789
101331.683903
101331.594247
101331.406258
101331.391154
101331.491067
101331.565216
101331.597302
101331.598858
101331.593594
101331.586957
101331.579472
101331.571953
101331.565138
101331.559418
101331.555637
101331.553229
101331.556608
101331.558142
101331.580524
101331.588223
101331.640428
101331.664979
101331.526932
101331.531224
101331.711445
101331.659987
101331.59516
101331.564671
101331.552362
101331.544956
101331.538815
101331.533073
101331.527801
101331.523313
101331.520538
101331.518895
101331.522768
101331.524536
101331.545055
101331.55171
101331.59361
101331.616788
101331.497656
101331.470055
101331.678349
101331.585443
101331.522615
101331.511868
101331.506882
101331.50132
101331.496672
101331.492381
101331.488315
101331.484785
101331.482768
101331.481637
101331.485662
101331.487336
101331.505674
101331.510986
101331.544243
101331.471277
101331.362541
101331.264497
101331.317578
101331.34183
101331.391606
101331.435731
101331.45098
101331.453494
101331.452423
101331.449809
101331.446687
101331.443806
101331.442267
101331.441403
101331.445298
101331.446654
101331.462703
101331.466613
101331.492767
101331.421944
101331.341377
101331.246966
101331.255525
101331.305508
101331.357711
101331.39494
101331.406712
101331.409269
101331.408494
101331.406
101331.403031
101331.400347
101331.398974
101331.398155
101331.401706
101331.402611
101331.416406
101331.418995
101331.439385
101331.480783
101331.430835
101331.364802
101331.36616
101331.414671
101331.417481
101331.403756
101331.385676
101331.37422
101331.366849
101331.361441
101331.357355
101331.354303
101331.352801
101331.35185
101331.354919
101331.355314
101331.366985
101331.368408
101331.384168
101331.509458
101331.480211
101331.439807
101331.456498
101331.55343
101331.489099
101331.40978
101331.361941
101331.337233
101331.322879
101331.314211
101331.308822
101331.305285
101331.303562
101331.302418
101331.304954
101331.304847
101331.314586
101331.315031
101331.327101
101331.392271
101331.36195
101331.316028
101331.306903
101331.427675
101331.359707
101331.304338
101331.287714
101331.277399
101331.267558
101331.260532
101331.255873
101331.252646
101331.250993
101331.249766
101331.251816
101331.251273
101331.259306
101331.25897
101331.26812
101331.207838
101331.170323
101331.110735
101331.047579
101331.073693
101331.104934
101331.149044
101331.186425
101331.199937
101331.201457
101331.200094
101331.198126
101331.196122
101331.19495
101331.193834
101331.195509
101331.194634
101331.201202
101331.200275
101331.20713
101331.142513
101331.116997
101331.078953
101331.0325
101331.037395
101331.077786
101331.112778
101331.133209
101331.138091
101331.138641
101331.138347
101331.137494
101331.136321
101331.13561
101331.134676
101331.136066
101331.134964
101331.140302
101331.138955
101331.144017
101331.152659
101331.141051
101331.124946
101331.104616
101331.123368
101331.193339
101331.160772
101331.118656
101331.093947
101331.082822
101331.077749
101331.075287
101331.073865
101331.073242
101331.072402
101331.073542
101331.072292
101331.076607
101331.074989
101331.078663
101331.083661
101331.072385
101331.056473
101331.035048
101331.043784
101331.121852
101331.073657
101331.034126
101331.021145
101331.015396
101331.011428
101331.0093
101331.008191
101331.007768
101331.007041
101331.007968
101331.006631
101331.010102
101331.008331
101331.010939
101330.938015
101330.920794
101330.896255
101330.861384
101330.832292
101330.855459
101330.870692
101330.893943
101330.918652
101330.931259
101330.935956
101330.937941
101330.938691
101330.939008
101330.938558
101330.939343
101330.937972
101330.940747
101330.938916
101330.940711
101330.847435
101330.832623
101330.813157
101330.786861
101330.759046
101330.766675
101330.791433
101330.817167
101330.841678
101330.855142
101330.861716
101330.865187
101330.866752
101330.867405
101330.86708
101330.867687
101330.866289
101330.868485
101330.866657
101330.867842
101330.822438
101330.81332
101330.802217
101330.787665
101330.770378
101330.773304
101330.796619
101330.80296
101330.802702
101330.798814
101330.796068
101330.794778
101330.794021
101330.793588
101330.792792
101330.793015
101330.791538
101330.793236
101330.791457
101330.792189
101330.788075
101330.782997
101330.777544
101330.770913
101330.763904
101330.777019
101330.822716
101330.797826
101330.764226
101330.742009
101330.729663
101330.722761
101330.718927
101330.716935
101330.715418
101330.715171
101330.713603
101330.714888
101330.713201
101330.71361
101330.688375
101330.682586
101330.675763
101330.667001
101330.656409
101330.662835
101330.71266
101330.686164
101330.660916
101330.651004
101330.645287
101330.64061
101330.637446
101330.635624
101330.634146
101330.633778
101330.632278
101330.633292
101330.631756
101330.631956
101330.550205
101330.541926
101330.531054
101330.516616
101330.496884
101330.480585
101330.494778
101330.507904
101330.52275
101330.538013
101330.545728
101330.548187
101330.54886
101330.549003
101330.548523
101330.548545
101330.547368
101330.548291
101330.546979
101330.547072
101330.452057
101330.445476
101330.437346
101330.427246
101330.413968
101330.400993
101330.407217
101330.425865
101330.438411
101330.448323
101330.453555
101330.456199
101330.457844
101330.458905
101330.45916
101330.459603
101330.458831
101330.459776
101330.458739
101330.458803
101330.384969
101330.381261
101330.377298
101330.372892
101330.367372
101330.362292
101330.371177
101330.399406
101330.390131
101330.377941
101330.37099
101330.36783
101330.366732
101330.366694
101330.366731
101330.367212
101330.366709
101330.367681
101330.366922
101330.367001
101330.291822
101330.288766
101330.285396
101330.281522
101330.276581
101330.271563
101330.278719
101330.30723
101330.292707
101330.279412
101330.274416
101330.272105
101330.270851
101330.2706
101330.270644
101330.271183
101330.270911
101330.271914
101330.271412
101330.271529
101330.166259
101330.162452
101330.157607
101330.151471
101330.143369
101330.133434
101330.130161
101330.144858
101330.14859
101330.153082
101330.160179
101330.1648
101330.16723
101330.168931
101330.170044
101330.171105
101330.171228
101330.17233
101330.172082
101330.172248
101330.050444
101330.046966
101330.042547
101330.037
101330.029831
101330.020832
101330.015021
101330.025411
101330.03483
101330.042069
101330.050617
101330.056844
101330.06081
101330.063676
101330.065599
101330.067126
101330.067624
101330.068832
101330.068811
101330.069022
101329.954165
101329.951759
101329.948812
101329.945188
101329.940573
101329.934691
101329.930192
101329.937692
101329.948779
101329.951156
101329.952868
101329.954407
101329.955736
101329.957191
101329.958469
101329.959719
101329.960223
101329.96138
101329.961492
101329.961716
101329.856574
101329.855035
101329.85324
101329.851099
101329.848417
101329.844986
101329.842445
101329.849702
101329.86516
101329.860412
101329.853922
101329.850391
101329.848593
101329.847987
101329.848052
101329.848624
101329.848868
101329.849834
101329.849987
101329.850188
101329.74001
101329.738678
101329.737079
101329.735118
101329.732602
101329.729293
101329.726385
101329.731852
101329.747033
101329.742068
101329.736061
101329.733896
101329.732855
101329.732338
101329.732322
101329.732773
101329.732993
101329.73387
101329.734078
101329.734261
101329.607336
101329.605881
101329.603987
101329.601527
101329.598263
101329.593897
101329.589226
101329.590523
101329.600071
101329.60246
101329.603197
101329.605862
101329.607996
101329.609358
101329.610459
101329.611535
101329.612151
101329.61317
101329.61353
101329.613744
101329.475404
101329.474094
101329.472379
101329.470126
101329.467118
101329.46314
101329.458817
101329.4587
101329.465596
101329.470997
101329.473322
101329.476714
101329.479813
101329.482063
101329.483876
101329.485458
101329.486465
101329.487669
101329.488207
101329.48847
101329.347838
101329.34686
101329.345591
101329.3439
101329.341599
101329.338569
101329.335319
101329.334987
101329.340467
101329.346594
101329.348055
101329.349317
101329.351043
101329.352504
101329.353883
101329.355265
101329.35626
101329.357445
101329.35805
101329.358319
101329.217561
101329.216869
101329.215972
101329.214743
101329.213029
101329.210793
101329.208463
101329.208216
101329.213012
101329.220378
101329.220565
101329.219142
101329.219041
101329.219304
101329.219836
101329.220669
101329.221387
101329.222383
101329.22294
101329.223155
101329.07854
101329.077986
101329.077253
101329.07622
101329.074758
101329.072888
101329.070913
101329.070315
101329.074586
101329.082469
101329.082467
101329.080174
101329.079685
101329.079745
101329.080013
101329.080619
101329.081213
101329.082088
101329.082611
101329.082774
101328.929802
101328.929271
101328.928535
101328.927469
101328.925967
101328.924091
101328.921999
101328.920592
101328.92361
101328.929941
101328.931911
101328.931239
101328.931846
101328.93277
101328.933531
101328.934417
101328.93521
101328.936165
101328.93676
101328.936929
101328.775354
101328.774847
101328.774123
101328.773062
101328.771594
101328.769829
101328.767835
101328.766088
101328.768006
101328.772724
101328.776263
101328.777059
101328.778251
101328.779824
101328.781073
101328.782301
101328.783368
101328.784482
101328.785201
101328.785411
101328.617782
101328.617333
101328.616684
101328.615727
101328.614437
101328.612973
101328.611336
101328.609698
101328.610942
101328.614747
101328.618687
101328.620121
101328.620867
101328.622308
101328.623547
101328.624783
101328.625919
101328.627079
101328.627861
101328.628085
101328.455881
101328.455491
101328.45492
101328.454082
101328.453004
101328.451872
101328.450609
101328.449144
101328.449799
101328.453051
101328.457164
101328.45897
101328.458938
101328.459856
101328.460797
101328.461795
101328.462805
101328.463878
101328.464631
101328.464822
101328.287591
101328.287236
101328.286715
101328.285974
101328.285087
101328.284235
101328.283259
101328.281895
101328.281961
101328.28475
101328.288855
101328.291029
101328.290627
101328.291156
101328.291911
101328.292715
101328.293599
101328.294573
101328.295275
101328.295422
101328.111802
101328.111463
101328.110976
101328.110319
101328.109597
101328.108959
101328.108156
101328.106785
101328.106284
101328.108569
101328.112295
101328.114945
101328.114929
101328.115359
101328.116178
101328.116967
101328.117838
101328.118791
101328.119484
101328.119617
101327.928578
101327.928259
101327.927818
101327.927264
101327.926711
101327.926247
101327.925538
101327.924085
101327.923091
101327.924869
101327.928288
101327.931459
101327.932242
101327.932587
101327.93352
101327.934372
101327.935289
101327.936273
101327.936992
101327.937145
101327.738458
101327.738178
101327.737813
101327.737393
101327.737017
101327.736693
101327.735981
101327.734323
101327.733098
101327.73452
101327.737792
101327.741421
101327.742979
101327.743117
101327.744049
101327.744929
101327.745864
101327.746865
101327.747605
101327.747785
101327.541774
101327.541554
101327.541286
101327.541008
101327.540789
101327.540547
101327.539697
101327.537632
101327.536351
101327.53766
101327.540824
101327.544468
101327.546676
101327.546751
101327.547613
101327.548504
101327.549422
101327.550409
101327.551145
101327.551345
101327.338866
101327.338715
101327.338548
101327.338398
101327.338301
101327.338098
101327.337092
101327.334625
101327.333025
101327.334116
101327.337061
101327.340331
101327.343086
101327.343354
101327.344027
101327.344892
101327.345761
101327.346705
101327.347412
101327.347621
101327.129293
101327.129199
101327.129108
101327.129039
101327.128994
101327.128758
101327.127593
101327.124842
101327.122774
101327.123504
101327.126171
101327.129115
101327.132301
101327.132835
101327.133103
101327.133868
101327.134648
101327.13552
101327.136181
101327.136388
101326.91173
101326.911663
101326.911598
101326.911539
101326.911451
101326.911066
101326.909622
101326.906533
101326.904172
101326.904698
101326.907201
101326.910005
101326.913256
101326.914244
101326.914233
101326.914983
101326.915734
101326.916564
101326.917196
101326.917398
101326.685639
101326.685567
101326.685484
101326.685375
101326.685167
101326.684521
101326.682644
101326.679159
101326.676715
101326.677211
101326.679658
101326.682422
101326.685384
101326.687144
101326.687173
101326.687965
101326.688758
101326.689591
101326.690225
101326.690418
101326.450597
101326.4505
101326.450366
101326.450161
101326.449732
101326.448589
101326.445976
101326.442533
101326.440473
101326.441206
101326.443737
101326.446573
101326.449373
101326.451991
101326.452206
101326.452876
101326.453675
101326.454493
101326.45512
101326.455272
101326.208131
101326.208001
101326.207811
101326.2075
101326.206829
101326.205139
101326.201739
101326.198248
101326.196494
101326.197374
101326.199897
101326.202732
101326.20546
101326.208467
101326.209076
101326.209556
101326.210363
101326.211141
101326.211731
101326.211794
101325.957178
101325.957004
101325.956734
101325.956243
101325.955167
101325.952829
101325.949177
101325.94568
101325.94423
101325.945275
101325.947784
101325.950599
101325.953271
101325.956111
101325.957592
101325.95788
101325.958632
101325.959322
101325.959829
101325.959748
101325.697722
101325.697468
101325.697041
101325.696206
101325.694441
101325.691295
101325.687545
101325.684509
101325.683645
101325.684973
101325.687501
101325.690259
101325.692821
101325.695336
101325.697635
101325.69762
101325.698143
101325.698669
101325.699032
101325.698761
101325.428164
101325.427855
101325.427227
101325.425939
101325.423643
101325.420471
101325.417238
101325.415293
101325.415456
101325.417351
101325.419999
101325.422551
101325.42459
101325.426207
101325.428102
101325.427755
101325.427977
101325.428401
101325.428648
101325.42823
101325.159942
101325.160524
101325.16128
101325.162013
101325.162574
101325.162975
101325.163076
101325.162932
101325.162294
101325.16067
101325.157732
101325.153566
101325.148734
101325.144426
101325.142988
101325.144106
101325.146264
101325.147448
101325.147751
101325.147639
101330.7921
101330.943307
101331.19014
101331.183122
101331.514558
101331.516072
101331.7354
101331.763576
101331.841587
101331.876824
101331.865765
101331.896354
101331.848729
101331.872456
101331.81359
101331.831375
101331.769493
101331.782658
101331.720316
101331.730008
101331.668324
101331.675481
101331.614826
101331.620169
101331.560368
101331.564415
101331.505046
101331.508154
101331.448762
101331.451171
101331.391345
101331.393222
101331.332604
101331.334064
101331.272341
101331.273466
101331.210367
101331.211214
101331.146503
101331.14712
101331.080572
101331.08101
101331.012395
101331.012697
101330.9418
101330.941995
101330.868629
101330.868739
101330.792736
101330.792774
101330.713979
101330.713961
101330.632202
101330.63215
101330.547233
101330.547164
101330.458904
101330.45883
101330.367058
101330.366987
101330.27155
101330.271485
101330.172236
101330.172181
101330.068978
101330.068932
101329.961637
101329.961599
101329.85007
101329.850038
101329.734109
101329.734083
101329.613571
101329.613549
101329.488285
101329.488268
101329.358119
101329.358102
101329.222933
101329.222916
101329.082537
101329.082518
101328.93669
101328.936672
101328.785182
101328.785164
101328.627863
101328.627844
101328.464601
101328.46458
101328.295205
101328.295182
101328.119416
101328.119393
101327.936971
101327.936951
101327.747645
101327.74763
101327.551241
101327.551231
101327.347552
101327.347547
101327.136347
101327.136348
101326.917376
101326.917381
101326.6904
101326.690404
101326.455234
101326.455232
101326.211712
101326.211697
101325.959599
101325.959565
101325.698534
101325.698478
101325.427952
101325.427882
101325.147682
101325.14768
)
;

boundaryField
{
    inletfuel
    {
        type            zeroGradient;
    }
    inletair
    {
        type            zeroGradient;
    }
    outlet
    {
        type            fixedValue;
        value           uniform 101325;
    }
    axis
    {
        type            empty;
    }
    leftside
    {
        type            zeroGradient;
    }
    burnerwall
    {
        type            zeroGradient;
    }
    front
    {
        type            wedge;
    }
    back
    {
        type            wedge;
    }
}


// ************************************************************************* //
