/*--------------------------------*- C++ -*----------------------------------*\
  =========                 |
  \\      /  F ield         | OpenFOAM: The Open Source CFD Toolbox
   \\    /   O peration     | Website:  https://openfoam.org
    \\  /    A nd           | Version:  dev
     \\/     M anipulation  |
\*---------------------------------------------------------------------------*/
FoamFile
{
    version     2.0;
    format      ascii;
    class       volScalarField;
    location    "0.3";
    object      PaSR<psiReactionThermo>:kappa;
}
// * * * * * * * * * * * * * * * * * * * * * * * * * * * * * * * * * * * * * //

dimensions      [0 0 0 0 0 0 0];

internalField   nonuniform List<scalar> 
1629
(
2.99542876448e-12
6.27920965517e-12
1.92840545278e-11
4.16911091897e-12
7.90630768645e-12
2.21900372792e-11
4.76807765833e-12
8.73100810513e-12
2.39353962368e-11
5.33540136997e-12
9.79800628977e-12
2.49427985765e-11
5.96718735556e-12
1.10653707414e-11
2.39142582343e-11
6.67071312886e-12
1.20280367565e-11
2.17671455517e-11
7.4040578812e-12
1.2486046737e-11
1.94269798539e-11
8.04519464935e-12
1.24485654949e-11
1.72157211254e-11
8.45911521874e-12
1.20376805128e-11
1.52101875595e-11
8.59139477892e-12
1.13823690048e-11
1.34354840384e-11
8.46495132702e-12
1.05754334732e-11
1.18811037124e-11
8.13822720886e-12
9.68940814414e-12
1.05188770444e-11
7.67533602652e-12
8.78509764787e-12
9.32116785988e-12
7.13213433633e-12
7.90792334324e-12
8.2650674207e-12
6.55249558948e-12
7.08567355669e-12
7.33154007332e-12
5.96974499845e-12
6.33248884896e-12
6.50613768375e-12
5.40695491168e-12
5.65302199399e-12
5.77790031657e-12
4.87807358634e-12
5.04573887244e-12
5.13699324518e-12
4.3901997843e-12
4.5057913009e-12
4.57368365245e-12
3.94609311892e-12
4.02713181508e-12
4.07864399366e-12
3.54586992416e-12
3.60379473941e-12
3.64369195016e-12
3.18778534993e-12
3.23010330487e-12
3.26185253675e-12
2.86860866395e-12
2.90034527858e-12
2.92659531411e-12
2.58461269845e-12
2.60912457338e-12
2.63173202432e-12
2.33235759917e-12
2.35184094355e-12
2.37194786584e-12
2.10865092444e-12
2.12456078233e-12
2.14287551499e-12
1.91029251016e-12
1.92363132066e-12
1.94064225759e-12
1.73422969931e-12
1.74568637952e-12
1.76169369137e-12
1.57781413634e-12
1.58782714983e-12
1.60293707567e-12
1.43884915329e-12
1.44767832735e-12
1.461859145e-12
1.31537390877e-12
1.32318861399e-12
1.33638359317e-12
1.2054755593e-12
1.21240938449e-12
1.22460325422e-12
1.10740215391e-12
1.11356083699e-12
1.12475696037e-12
1.01970292335e-12
1.02516052806e-12
1.03535157224e-12
9.41126476961e-13
9.45939709159e-13
9.5512454413e-13
8.70490370702e-13
8.74715243551e-13
8.82923125916e-13
8.06707885684e-13
8.10403367401e-13
8.17691723687e-13
7.48871408794e-13
7.5209450234e-13
7.58533212732e-13
6.96274875362e-13
6.99077998437e-13
7.0473954924e-13
6.48347680211e-13
6.50780238784e-13
6.55740350813e-13
6.04588412698e-13
6.06697910355e-13
6.1103516945e-13
5.6454643827e-13
5.66376838589e-13
5.70167828046e-13
5.27824335612e-13
5.29414705744e-13
5.3272991221e-13
4.94080436479e-13
4.95464857608e-13
4.98367420653e-13
4.6302233018e-13
4.64230765671e-13
4.66777482408e-13
4.34398530636e-13
4.35457745813e-13
4.37700460231e-13
4.07995829616e-13
4.08929811406e-13
4.10915835556e-13
3.83637102634e-13
3.84467102024e-13
3.86238940471e-13
3.61176678543e-13
3.61921241879e-13
3.6351638284e-13
3.40495064723e-13
3.41170188767e-13
3.42621223218e-13
3.2149578568e-13
3.22115041234e-13
3.23449772116e-13
3.04100901248e-13
3.04675413246e-13
3.05916707286e-13
2.88240498239e-13
2.88778933046e-13
2.89944628568e-13
2.73838169325e-13
2.74347013503e-13
2.75450507844e-13
2.6080235287e-13
2.61286578483e-13
2.62338212744e-13
2.49029173766e-13
2.49493049822e-13
2.50501816843e-13
2.3841430538e-13
2.38862065611e-13
2.39836971709e-13
2.28867785343e-13
2.29304107889e-13
2.30255186374e-13
2.20329079912e-13
2.20759355139e-13
2.21698211749e-13
2.12780527254e-13
2.13210753325e-13
2.14150306103e-13
2.06265864154e-13
2.06702538127e-13
2.07656773841e-13
2.00947290296e-13
2.01398492098e-13
2.02384753189e-13
1.97694858199e-13
1.98160448985e-13
1.99177723382e-13
4.22898186277e-12
1.82398702907e-11
1.82904104381e-11
1.7051491492e-11
1.54505454535e-11
1.38544885218e-11
1.23897040411e-11
1.10703030291e-11
9.88426215429e-12
8.82546388031e-12
7.88095037005e-12
7.03597927722e-12
6.2799713649e-12
5.60601225551e-12
5.0076439512e-12
4.4775959386e-12
4.00833045289e-12
3.59326890852e-12
3.22700469864e-12
2.90415964024e-12
2.61911563942e-12
2.36688293173e-12
2.14350025472e-12
1.94551831796e-12
1.7696621121e-12
1.61299099091e-12
1.47312350774e-12
1.34818046536e-12
1.23646803959e-12
1.1363588299e-12
1.0464272591e-12
9.65481860462e-13
8.92456074787e-13
8.2636462765e-13
7.66352228087e-13
7.11734699354e-13
6.6196099628e-13
6.16545859621e-13
5.7503976673e-13
5.3703365671e-13
5.02169585648e-13
4.70140715786e-13
4.40684213007e-13
4.13576072923e-13
3.88627119183e-13
3.65678682402e-13
3.44598301101e-13
3.25276612095e-13
3.07622210529e-13
2.91551396496e-13
2.76975606589e-13
2.63795011682e-13
2.51902188234e-13
2.41193031961e-13
2.31580590694e-13
2.23008837207e-13
2.15463952076e-13
2.08992269053e-13
2.03765780101e-13
2.00600881534e-13
3.15646529559e-13
4.91343451353e-14
3.13672481542e-14
2.92248463975e-14
2.89268968291e-14
2.88816934515e-14
2.8871971502e-14
2.88685306496e-14
2.88670125236e-14
2.88663799853e-14
2.88661973817e-14
2.88662804919e-14
2.8866605362e-14
2.88672722179e-14
2.88684832644e-14
2.88708258944e-14
2.8874383417e-14
2.88977739592e-14
2.96828115018e-14
1.00581802462e-13
3.12280803419e-13
5.86925382793e-14
3.37084048615e-14
2.96261742828e-14
2.88852982329e-14
2.8749599732e-14
2.87195115271e-14
2.87100124851e-14
2.87063065766e-14
2.87048753821e-14
2.8704420234e-14
2.8704406951e-14
2.87046786567e-14
2.87053177249e-14
2.87065568176e-14
2.87092377259e-14
2.87137310871e-14
2.87548241032e-14
3.00680087142e-14
1.02253067978e-13
3.25961258875e-13
8.55379474024e-14
3.91412430653e-14
3.0680759701e-14
2.90161666848e-14
2.87028818921e-14
2.86349770116e-14
2.86145559908e-14
2.86067133727e-14
2.8603480192e-14
2.86021883118e-14
2.86017701046e-14
2.86018467957e-14
2.86024392746e-14
2.86037878535e-14
2.86070020928e-14
2.86129936939e-14
2.86696635553e-14
3.0341342631e-14
1.0340679039e-13
2.91774166144e-12
4.9576055387e-13
7.09069288308e-14
3.46699868709e-14
2.95812564975e-14
2.87360113908e-14
2.85682310962e-14
2.85224644097e-14
2.85057273439e-14
2.84987170377e-14
2.84956699612e-14
2.84944036679e-14
2.84940910182e-14
2.8494612847e-14
2.84962155699e-14
2.85003579094e-14
2.85094336018e-14
2.85889805993e-14
3.06979873645e-14
1.06599383708e-13
7.84090540438e-12
1.29715394372e-12
1.21548187239e-13
4.15077646913e-14
3.08136923063e-14
2.89005221889e-14
2.85276547145e-14
2.84358315553e-14
2.84045530538e-14
2.83918002135e-14
2.83862152938e-14
2.83837642728e-14
2.83829166845e-14
2.83833256577e-14
2.83852535026e-14
2.83904705042e-14
2.84042122013e-14
2.85126347046e-14
3.115862781e-14
1.11921860838e-13
8.91269330285e-12
2.28935877176e-12
2.22875460094e-13
5.61802144576e-14
3.37272012894e-14
2.93774110769e-14
2.85388877971e-14
2.8357418712e-14
2.83034279386e-14
2.82826464404e-14
2.82736596152e-14
2.8269654731e-14
2.82681064274e-14
2.82683395446e-14
2.82706400681e-14
2.8277023261e-14
2.8297067355e-14
2.84388666725e-14
3.17478846826e-14
1.17814444711e-13
8.80172790871e-12
3.05750803052e-12
8.24641258906e-13
1.712632973e-13
4.88391514315e-14
3.13201397725e-14
2.87172548838e-14
2.82960616009e-14
2.82026643468e-14
2.8171189825e-14
2.81579259083e-14
2.81519747437e-14
2.81495426057e-14
2.81495310137e-14
2.81522490971e-14
2.81598524247e-14
2.81877715992e-14
2.83671784148e-14
3.24403467243e-14
1.232311792e-13
8.54931862702e-12
1.94354524231e-12
1.35968422211e-12
4.86252922175e-13
1.00451279512e-13
3.74671198006e-14
2.93667089563e-14
2.82804249784e-14
2.81040239861e-14
2.80574268423e-14
2.80389741623e-14
2.80306707905e-14
2.80271529569e-14
2.80268216363e-14
2.80299889747e-14
2.80388364917e-14
2.80758326603e-14
2.82985797218e-14
3.32001524853e-14
1.27569261539e-13
8.25531021131e-12
3.04659262122e-12
1.31509177445e-12
5.22409226806e-13
1.32133301577e-13
4.46842135984e-14
3.04978682305e-14
2.83460124411e-14
2.80129843067e-14
2.79419502605e-14
2.79168853181e-14
2.79057402925e-14
2.79008930717e-14
2.79001468786e-14
2.79037541801e-14
2.79138598031e-14
2.79605479479e-14
2.82345382057e-14
3.40022968519e-14
1.30726410448e-13
7.92764290077e-12
3.72338880876e-12
1.41943913063e-12
4.94676244798e-13
1.49069014539e-13
5.20349395962e-14
3.21443401961e-14
2.85465762277e-14
2.79422424612e-14
2.78267919761e-14
2.77920169264e-14
2.77772780463e-14
2.77707809815e-14
2.77694920926e-14
2.77734678503e-14
2.77848732649e-14
2.78413347759e-14
2.81761549468e-14
3.48311980388e-14
1.32884383575e-13
7.55311964003e-12
4.02454637167e-12
1.55237478391e-12
5.91959034663e-13
1.9637254633e-13
6.52623469495e-14
3.50570652103e-14
2.90171908828e-14
2.791742603e-14
2.7716137893e-14
2.76650876914e-14
2.7645487808e-14
2.7636908277e-14
2.76349091107e-14
2.76391093936e-14
2.76519096834e-14
2.7717894353e-14
2.81239991186e-14
3.5675964093e-14
1.34269220444e-13
7.09385442069e-12
4.10070483537e-12
1.16698177413e-12
8.17854986582e-13
3.35776437578e-13
9.72871114094e-14
4.09891968829e-14
3.00158727357e-14
2.79814741675e-14
2.76166264537e-14
2.75371440636e-14
2.75106566841e-14
2.74994252551e-14
2.74965033851e-14
2.75007092928e-14
2.75150505284e-14
2.75901934884e-14
2.80782729342e-14
3.65279312387e-14
1.35065286249e-13
6.5863751545e-12
4.11607013733e-12
1.35371108347e-12
9.60214377532e-13
4.48162752462e-13
1.36968142673e-13
4.96685366437e-14
3.1672473817e-14
2.81790348561e-14
2.75369892648e-14
2.74095347032e-14
2.73731055295e-14
2.73585071929e-14
2.7354406126e-14
2.73583303399e-14
2.73743884677e-14
2.74583919427e-14
2.80389933575e-14
3.73799309704e-14
1.35411935709e-13
6.08462440239e-12
4.06160180022e-12
1.68873456521e-12
1.07705724694e-12
5.02070027249e-13
1.71919784847e-13
5.9894348207e-14
3.4000902012e-14
2.85545487473e-14
2.74897596021e-14
2.72844011464e-14
2.7233206468e-14
2.72143143883e-14
2.72087399782e-14
2.72120461468e-14
2.7230003785e-14
2.73227757147e-14
2.80061111543e-14
3.82260990151e-14
1.35415729602e-13
5.60530432409e-12
3.96294639393e-12
1.98523097594e-12
1.16350324345e-12
5.84176446304e-13
2.25886646656e-13
7.52069850855e-14
3.74891416101e-14
2.92031115123e-14
2.7496559774e-14
2.71656519051e-14
2.70915329383e-14
2.70669829694e-14
2.70595935326e-14
2.70619228366e-14
2.70819539386e-14
2.71837038117e-14
2.79795687219e-14
3.90617205135e-14
1.35159482746e-13
5.15255325607e-12
3.83063263759e-12
2.29804522038e-12
9.35896723818e-13
6.68095629423e-13
3.07608847795e-13
9.94935498602e-14
4.27955114402e-14
3.02463969742e-14
2.75855546049e-14
2.70589080392e-14
2.69489284401e-14
2.69166397001e-14
2.69070168271e-14
2.69080112569e-14
2.69302741865e-14
2.70415675795e-14
2.7959312544e-14
3.98830645691e-14
1.34708183061e-13
4.72795759211e-12
3.65028095977e-12
2.43624585443e-12
1.02056172703e-12
7.39134788156e-13
3.66181822023e-13
1.24226948131e-13
4.91524002417e-14
3.16645378475e-14
2.77747624874e-14
2.69701487206e-14
2.68064541593e-14
2.67634194454e-14
2.67510350297e-14
2.67503524923e-14
2.67749878766e-14
2.68967640441e-14
2.79452831419e-14
4.06872498318e-14
1.34113490491e-13
4.33291757731e-12
3.45140515317e-12
2.48806457784e-12
1.18066280723e-12
8.14590455889e-13
3.98491603817e-13
1.4458754572e-13
5.58044179829e-14
3.34077570111e-14
2.80808964573e-14
2.69074957779e-14
2.6665944049e-14
2.66076157342e-14
2.65917002591e-14
2.65889980077e-14
2.66161235476e-14
2.67496825831e-14
2.79374004401e-14
4.14721508553e-14
1.33417249238e-13
3.96624413169e-12
3.24653770141e-12
2.49028625001e-12
1.35991970179e-12
9.18541531303e-13
4.47432689407e-13
1.71320898829e-13
6.44179127214e-14
3.57454771551e-14
2.85658346722e-14
2.68879309388e-14
2.65313916379e-14
2.64500384842e-14
2.64291999367e-14
2.64240454842e-14
2.64537350085e-14
2.66007013644e-14
2.79355533181e-14
4.22363365402e-14
1.32654045043e-13
3.62576637367e-12
3.04142037877e-12
2.44741803814e-12
1.48890179052e-12
9.65086745563e-13
5.36541367394e-13
2.29642520934e-13
8.08949693091e-14
3.96039931763e-14
2.93866203351e-14
2.69438489885e-14
2.64098784539e-14
2.62922111536e-14
2.62639141827e-14
2.62556603099e-14
2.62879118552e-14
2.6450186186e-14
2.79395940265e-14
4.29790291226e-14
1.31852951891e-13
3.31050435861e-12
2.83907345843e-12
2.36643692491e-12
1.58911902001e-12
7.91597848523e-13
6.00256086981e-13
3.11740743946e-13
1.09551618451e-13
4.5982196201e-14
3.0726380931e-14
2.71138792537e-14
2.63098277697e-14
2.61358847493e-14
2.60962546045e-14
2.6084028584e-14
2.61187638819e-14
2.62984847317e-14
2.79493372922e-14
4.37000779231e-14
1.3103870537e-13
3.02120720215e-12
2.64454887825e-12
2.25974273118e-12
1.66020460333e-12
8.70318120463e-13
6.52461790663e-13
3.62162011891e-13
1.38058836975e-13
5.38004866969e-14
3.2551086469e-14
2.74166786284e-14
2.62381153995e-14
2.59824768304e-14
2.5926444736e-14
2.59092654276e-14
2.59463852174e-14
2.61459139666e-14
2.79645633232e-14
4.43999410332e-14
1.30232473505e-13
2.75787928433e-12
2.46167301432e-12
2.14856534917e-12
1.68688492353e-12
9.80805827749e-13
7.04772027089e-13
3.91727117581e-13
1.63330118896e-13
6.25588536008e-14
3.48581293041e-14
2.78765934767e-14
2.62044903768e-14
2.58341457663e-14
2.57547418821e-14
2.57314244163e-14
2.57708440224e-14
2.59927511387e-14
2.79850267856e-14
4.50796770691e-14
1.29452458678e-13
2.51848492109e-12
2.28946769268e-12
2.03695797313e-12
1.67946808269e-12
1.06570118607e-12
7.35488061611e-13
4.39120184461e-13
2.02850855031e-13
7.58499473222e-14
3.82021448328e-14
2.85923897065e-14
2.62311099502e-14
2.56957021303e-14
2.55819552032e-14
2.5550630507e-14
2.55922164131e-14
2.58392378021e-14
2.80104713589e-14
4.57409067636e-14
1.28713744274e-13
2.30059242144e-12
2.12608155979e-12
1.92243049701e-12
1.64159057545e-12
1.11697190957e-12
6.43141418095e-13
4.78914611778e-13
2.56082717941e-13
9.65113536545e-14
4.3224243074e-14
2.96856619173e-14
2.63454061559e-14
2.55734115456e-14
2.54092482908e-14
2.53670778197e-14
2.54105965718e-14
2.56855873584e-14
2.80406475663e-14
4.63857432837e-14
1.28028233748e-13
2.10270152494e-12
1.97195111587e-12
1.80750224604e-12
1.58146753157e-12
1.16216749982e-12
6.7601622437e-13
5.12699048091e-13
2.95281197783e-13
1.18244673922e-13
4.92916850329e-14
3.11203385409e-14
2.65557760052e-14
2.54712739752e-14
2.5237364234e-14
2.51808353563e-14
2.52260452511e-14
2.55319793546e-14
2.80753288807e-14
4.70167173781e-14
1.27405010991e-13
1.92360661566e-12
1.82828359066e-12
1.69711008482e-12
1.51345407413e-12
1.18569655242e-12
7.30082971822e-13
5.46685074213e-13
3.22207015935e-13
1.37657188398e-13
5.57362482459e-14
3.28187811972e-14
2.68631026011e-14
2.53930333331e-14
2.50671945867e-14
2.49919580562e-14
2.50386119787e-14
2.53785632919e-14
2.81143284897e-14
4.76367003033e-14
1.26850576648e-13
1.76162584189e-12
1.69484010124e-12
1.59198207987e-12
1.4427136176e-12
1.18762540529e-12
7.90848469248e-13
5.85086525754e-13
3.5074104359e-13
1.59499480394e-13
6.3531725536e-14
3.4951329924e-14
2.73064945733e-14
2.535016955e-14
2.49017386796e-14
2.4801062618e-14
2.48485187495e-14
2.52255076499e-14
2.81575262418e-14
4.82488353149e-14
1.26369029299e-13
1.61486239374e-12
1.57060598427e-12
1.49142954573e-12
1.37122856669e-12
1.17216092587e-12
8.31695268698e-13
6.04187243258e-13
3.90126137085e-13
1.94984768658e-13
7.6088937755e-14
3.81132735932e-14
2.79927229072e-14
2.53664071889e-14
2.47469240573e-14
2.46096202898e-14
2.46562796568e-14
2.50730569078e-14
2.82049145825e-14
4.88565404992e-14
1.25962484239e-13
1.48172863144e-12
1.45478538543e-12
1.39490331478e-12
1.29846822008e-12
1.14184179362e-12
8.52942056132e-13
5.5158043099e-13
4.18956193202e-13
2.3820173708e-13
9.51518487069e-14
4.28470657768e-14
2.90300637049e-14
2.54665452139e-14
2.46090317206e-14
2.44192399922e-14
2.44624692901e-14
2.49214981682e-14
2.82566486568e-14
4.94635168486e-14
1.2563040498e-13
1.36113632311e-12
1.34735697019e-12
1.30324066568e-12
1.22612349277e-12
1.10086532349e-12
8.67734122523e-13
5.72722872266e-13
4.41959872408e-13
2.69179878079e-13
1.15303831532e-13
4.86780384093e-14
3.04010129421e-14
2.56588271462e-14
2.44916582124e-14
2.42308127052e-14
2.42673784344e-14
2.47710481816e-14
2.83130651746e-14
5.00737380077e-14
1.25370025274e-13
1.25209975135e-12
1.24839946171e-12
1.21751145431e-12
1.15694167339e-12
1.05613496806e-12
8.71025632567e-13
6.02497731941e-13
4.62835221129e-13
2.92007928553e-13
1.35034714241e-13
5.54160944167e-14
3.21084479974e-14
2.59538510004e-14
2.43992444461e-14
2.40453392395e-14
2.40711875285e-14
2.4621838635e-14
2.83746593556e-14
5.06912959337e-14
1.25176766593e-13
1.15343989363e-12
1.15730423001e-12
1.13730808988e-12
1.09064946251e-12
1.00948652242e-12
8.61547110204e-13
6.27605932328e-13
4.75692361882e-13
3.16525943266e-13
1.59737095323e-13
6.45267562205e-14
3.44103086002e-14
2.64004736711e-14
2.43433867638e-14
2.38655491323e-14
2.38745113153e-14
2.44740639112e-14
2.84420736818e-14
5.13201506355e-14
1.25044686618e-13
1.06399201007e-12
1.07320619356e-12
1.06175474219e-12
1.02630269501e-12
9.60806538232e-13
8.42213642833e-13
6.41702106423e-13
4.64676103459e-13
3.39284161302e-13
1.89154921072e-13
7.71925103305e-14
3.76113886648e-14
2.70604181517e-14
2.43389010619e-14
2.36952406681e-14
2.36783378762e-14
2.43280525108e-14
2.85161495724e-14
5.19640079363e-14
1.24967011134e-13
9.82805381469e-13
9.95542124972e-13
9.90604439219e-13
9.64112960642e-13
9.11269946356e-13
8.17349686516e-13
6.49173692152e-13
4.73672391355e-13
3.58403929644e-13
2.15131714494e-13
9.18216516391e-14
4.16295120645e-14
2.79430221655e-14
2.43928869452e-14
2.35369457794e-14
2.34833613294e-14
2.41841166515e-14
2.85979675523e-14
5.26263403647e-14
1.24936681159e-13
9.09061215364e-13
9.23969872332e-13
9.24041016103e-13
9.05032636829e-13
8.63142302718e-13
7.88766807143e-13
6.5316018044e-13
4.86517954812e-13
3.76167780613e-13
2.37051393173e-13
1.07255493843e-13
4.63345749824e-14
2.90405636585e-14
2.45086878622e-14
2.33924660831e-14
2.32900186771e-14
2.40424625771e-14
2.86887383699e-14
5.33101734516e-14
1.24946592886e-13
8.41969945886e-13
8.5807759435e-13
8.62007530312e-13
8.49335633687e-13
8.16908800491e-13
7.5796911016e-13
6.49505652734e-13
4.99565467764e-13
3.91772098224e-13
2.57046466198e-13
1.24351994868e-13
5.20758523896e-14
3.04239454475e-14
2.47024408768e-14
2.32662857647e-14
2.30994517493e-14
2.39034053338e-14
2.8789650581e-14
5.40176408649e-14
1.24989693431e-13
7.80802889713e-13
7.97387739511e-13
8.04211621899e-13
7.96797007601e-13
7.72335878875e-13
7.25741143693e-13
6.39132106789e-13
5.09205597213e-13
4.03055410723e-13
2.77379710758e-13
1.45257521578e-13
5.98285892497e-14
3.22864659673e-14
2.50112615411e-14
2.31672562357e-14
2.29140583667e-14
2.37676480791e-14
2.89019834569e-14
5.47499945961e-14
1.25059401903e-13
7.24958560482e-13
7.41470257569e-13
7.50345194417e-13
7.47151348775e-13
7.29250264002e-13
6.92698009746e-13
6.24058230604e-13
5.12842342325e-13
4.0677731036e-13
2.96167542769e-13
1.68950974747e-13
7.03211339165e-14
3.48404932379e-14
2.54776049663e-14
2.31054448492e-14
2.27366860698e-14
2.36362267086e-14
2.90274817776e-14
5.55083946097e-14
1.25150489911e-13
6.7395238493e-13
6.89995504632e-13
7.00231768003e-13
7.00366798849e-13
6.87861271047e-13
6.5961609563e-13
6.06156038629e-13
5.12107670734e-13
4.14210481139e-13
3.12353647928e-13
1.91337137129e-13
8.30720634162e-14
3.81614681176e-14
2.61263923614e-14
2.30878939801e-14
2.25694889125e-14
2.35101695248e-14
2.9168481065e-14
5.62944237599e-14
1.25259418167e-13
6.27350784345e-13
6.42677269209e-13
6.53759763774e-13
6.56532024311e-13
6.48557613402e-13
6.2737884341e-13
5.86227461679e-13
5.08203817173e-13
4.21663744461e-13
3.27137458545e-13
2.11490814597e-13
9.76193835493e-14
4.23262204265e-14
2.69822218169e-14
2.31211331422e-14
2.24143350205e-14
2.33903817574e-14
2.93275041555e-14
5.7109393647e-14
1.25383674168e-13
5.84736241987e-13
5.99206370312e-13
6.10753060213e-13
6.15610397919e-13
6.11461085391e-13
5.96282682763e-13
5.64865715363e-13
5.01467252902e-13
4.27433987253e-13
3.40849404918e-13
2.29896458952e-13
1.14064129527e-13
4.76129140733e-14
2.81072954817e-14
2.3218071542e-14
2.22743653329e-14
2.32779473846e-14
2.95068322338e-14
5.79532142813e-14
1.25520834066e-13
5.45713671443e-13
5.59259151929e-13
5.70980917592e-13
5.77458038842e-13
5.76500396687e-13
5.66351996657e-13
5.42783006376e-13
4.9222070812e-13
4.30875903585e-13
3.5255310465e-13
2.46875211245e-13
1.32632759167e-13
5.45613343135e-14
2.96249332224e-14
2.34022959669e-14
2.21549391338e-14
2.31745349934e-14
2.97087626966e-14
5.88246131778e-14
1.25668725588e-13
5.09929462053e-13
5.22530693704e-13
5.34209692664e-13
5.41911163882e-13
5.4358269776e-13
5.3764861254e-13
5.20637037894e-13
4.8141381225e-13
4.30792657409e-13
3.61865759276e-13
2.62616025761e-13
1.5270834365e-13
6.375769508e-14
3.170744909e-14
2.37062591671e-14
2.20631144275e-14
2.30824938895e-14
2.99363310137e-14
5.97225266262e-14
1.25826230119e-13
4.77078570986e-13
4.88754964373e-13
5.00239009261e-13
5.08845524783e-13
5.12675924607e-13
5.10297063291e-13
4.98847147591e-13
4.6947595077e-13
4.27590615477e-13
3.69409523317e-13
2.76742119593e-13
1.72339343258e-13
7.53485340434e-14
3.45252074929e-14
2.4164972479e-14
2.20063857196e-14
2.30046010836e-14
3.01936645077e-14
6.06469098641e-14
1.25993390593e-13
4.46899430611e-13
4.57704872821e-13
4.68905690539e-13
4.78179467252e-13
4.83795458233e-13
4.84436597889e-13
4.77698118718e-13
4.56540521241e-13
4.22322958162e-13
3.75454161253e-13
2.89690710987e-13
1.90210381528e-13
8.90948543909e-14
3.82543439946e-14
2.48179893839e-14
2.19928385577e-14
2.29438455582e-14
3.0485499446e-14
6.15978392021e-14
1.26170485784e-13
4.19166920616e-13
4.29180306435e-13
4.40060873732e-13
4.49830145671e-13
4.56928489173e-13
4.60127392666e-13
4.57347846981e-13
4.42904050902e-13
4.15832700486e-13
3.79339290696e-13
3.01763100894e-13
2.06094847977e-13
1.04636134519e-13
4.31481858751e-14
2.57233919662e-14
2.20333384024e-14
2.29036303332e-14
3.08165655233e-14
6.2574443541e-14
1.2635737858e-13
3.93687180017e-13
4.03000369748e-13
4.13557231935e-13
4.23693793371e-13
4.32013363987e-13
4.37354242833e-13
4.37879517732e-13
4.28954221268e-13
4.08663953926e-13
3.80884340018e-13
3.12725223426e-13
2.2023231143e-13
1.21424880279e-13
4.957395031e-14
2.69734712913e-14
2.2144094976e-14
2.28882850351e-14
3.11917253846e-14
6.357571795e-14
1.26555014516e-13
3.70294097068e-13
3.79002223787e-13
3.89251199167e-13
3.99655009175e-13
4.08966899568e-13
4.16087552272e-13
4.19391487437e-13
4.15098187983e-13
4.0117106413e-13
3.79932644266e-13
3.22281630968e-13
2.33137965069e-13
1.38601143621e-13
5.79481518447e-14
2.87040478743e-14
2.23483373964e-14
2.29035518888e-14
3.16168450599e-14
6.46033458503e-14
1.26768753442e-13
3.48846318439e-13
3.57041224906e-13
3.67007694599e-13
3.77598885563e-13
3.87706600173e-13
3.96305273285e-13
4.01970122628e-13
4.01581891791e-13
3.93323662172e-13
3.77067937441e-13
3.29656080422e-13
2.45048812225e-13
1.55027864802e-13
6.85354914009e-14
3.10945742469e-14
2.26773316717e-14
2.29569141778e-14
3.20997998057e-14
6.56654252647e-14
1.27013218247e-13
3.29224532922e-13
3.36989865019e-13
3.46701704133e-13
3.57415603176e-13
3.68154540992e-13
3.77983568634e-13
3.85666480477e-13
3.88593557523e-13
3.85201900854e-13
3.73045915922e-13
3.34735286781e-13
2.56106844309e-13
1.69872437599e-13
8.12570707661e-14
3.43721720694e-14
2.31731832389e-14
2.30580622417e-14
3.26511090329e-14
6.67792576426e-14
1.27315142594e-13
3.11326006544e-13
3.18732658024e-13
3.28214586259e-13
3.38998697112e-13
3.50236774544e-13
3.61102434511e-13
3.70540016502e-13
3.7635148825e-13
3.77055465992e-13
3.68526369394e-13
3.37416706295e-13
2.66440334552e-13
1.83051571137e-13
9.56161475145e-14
3.88243963705e-14
2.38952542577e-14
2.32198424622e-14
3.32845525658e-14
6.79728879669e-14
1.27713310626e-13
2.95054991933e-13
3.02159023342e-13
3.11431408279e-13
3.22247855821e-13
3.33891099771e-13
3.45658694428e-13
3.56669880126e-13
3.65119704977e-13
3.69152300597e-13
3.63731794002e-13
3.37609634097e-13
2.75703093854e-13
1.94910012902e-13
1.10666040444e-13
4.47804509153e-14
2.4928285282e-14
2.34594909843e-14
3.40172822345e-14
6.92818651175e-14
1.28250051156e-13
2.80312423999e-13
2.87158010189e-13
2.96241491061e-13
3.07072553458e-13
3.1906603239e-13
3.31644801538e-13
3.44071483145e-13
3.54878738553e-13
3.61624201601e-13
3.58607001282e-13
3.35891573629e-13
2.83044838014e-13
2.05638172157e-13
1.2517945233e-13
5.25409571474e-14
2.63941335158e-14
2.38003867317e-14
3.48699955738e-14
7.07445141738e-14
1.28961739395e-13
2.66991744166e-13
2.73617514733e-13
2.82538780439e-13
2.93387965093e-13
3.0570598473e-13
3.19023955562e-13
3.32691997716e-13
3.45438706154e-13
3.54416351618e-13
3.53192682125e-13
3.33019251011e-13
2.88036204552e-13
2.15540416287e-13
1.38278700041e-13
6.22843803653e-14
2.84749660895e-14
2.42752364735e-14
3.58651822312e-14
7.23891450065e-14
1.29861055048e-13
2.54983207734e-13
2.61428705194e-13
2.70224257111e-13
2.81113784919e-13
2.93750878994e-13
3.07749436216e-13
3.22499221369e-13
3.368338382e-13
3.47547462712e-13
3.47614943868e-13
3.29551335083e-13
2.90272785968e-13
2.24804768589e-13
1.49722212342e-13
7.38024216074e-14
3.14246619013e-14
2.49299161095e-14
3.70253010641e-14
7.42205559784e-14
1.30922713567e-13
2.44183793126e-13
2.5049415379e-13
2.59212351051e-13
2.70181530366e-13
2.83151157788e-13
2.97793551012e-13
3.13503379259e-13
3.2915488219e-13
3.41045703045e-13
3.41896376767e-13
3.2549437077e-13
2.90150159125e-13
2.32505242782e-13
1.59512082969e-13
8.62195289975e-14
3.55523674472e-14
2.58279138178e-14
3.83675772233e-14
7.61980703047e-14
1.32064517315e-13
2.34510209048e-13
2.40740117533e-13
2.4944504635e-13
2.60555736467e-13
2.73902170026e-13
2.89196439841e-13
3.05808853078e-13
3.22426717957e-13
3.34832403657e-13
3.35919619019e-13
3.20734883739e-13
2.88352462206e-13
2.38127447715e-13
1.68520046224e-13
9.85168757298e-14
4.1231715492e-14
2.7064581707e-14
3.99024775069e-14
7.82304852817e-14
1.3315218207e-13
2.2591136499e-13
2.32126552887e-13
2.40897007613e-13
2.5222577304e-13
2.65999708028e-13
2.81939970717e-13
2.9939906842e-13
3.1647042731e-13
3.28743066037e-13
3.29620227594e-13
3.15333648451e-13
2.85543042673e-13
2.41256233355e-13
1.77520608863e-13
1.10123896116e-13
4.88559073617e-14
2.87927299141e-14
4.1632183517e-14
8.01674271866e-14
1.34000538369e-13
2.18377619246e-13
2.24651485651e-13
2.33573487909e-13
2.45198008183e-13
2.59433805905e-13
2.75948855687e-13
2.93926962798e-13
3.11043163874e-13
3.22636356912e-13
3.23011147389e-13
3.09415121383e-13
2.81948595383e-13
2.42147671285e-13
1.85784736924e-13
1.20758659213e-13
5.86432507989e-14
3.12701268767e-14
4.35559145729e-14
8.18124581968e-14
1.34402946128e-13
2.11957180599e-13
2.18367002834e-13
2.27528985576e-13
2.39523862158e-13
2.5424532246e-13
2.71271342947e-13
2.89374495877e-13
3.05987720406e-13
3.16425150994e-13
3.16096734501e-13
3.03050282815e-13
2.77639782793e-13
2.41440870047e-13
1.9263674522e-13
1.31531185569e-13
7.0733669979e-14
3.49693480119e-14
4.56747371517e-14
8.29475587121e-14
1.34168791058e-13
2.06832389287e-13
2.13472450839e-13
2.22973414493e-13
2.35396029173e-13
2.50538948061e-13
2.67739472823e-13
2.85447953148e-13
3.00816709519e-13
3.09555466845e-13
3.08298683857e-13
2.95685208727e-13
2.72175636056e-13
2.39288641673e-13
1.97244168843e-13
1.42161985251e-13
8.46748715111e-14
4.07073629742e-14
4.8019516582e-14
8.3404718862e-14
1.33178207443e-13
2.03756712999e-13
2.10570053813e-13
2.20246658178e-13
2.32745714404e-13
2.47670040605e-13
2.64091818832e-13
2.80389570414e-13
2.93854602273e-13
3.01169377097e-13
2.99794225727e-13
2.88527174168e-13
2.6760346577e-13
2.38317409792e-13
2.019214189e-13
1.53983194147e-13
1.00100620767e-13
4.93879320461e-14
5.06806847285e-14
8.31312722071e-14
1.31460571381e-13
1.8636842648e-13
3.49353327761e-13
3.26284413255e-13
3.66311079731e-13
3.64751824175e-13
3.762336287e-13
3.79037041861e-13
3.78430873575e-13
3.78369088981e-13
3.78560312043e-13
3.7012877793e-13
3.77728300894e-13
3.59004065251e-13
3.76305253159e-13
3.47324676524e-13
3.74471031915e-13
3.36084156819e-13
3.72323804192e-13
3.25658811598e-13
3.69924066654e-13
3.16170978177e-13
3.67315326663e-13
3.07638026664e-13
3.64534583433e-13
3.00030678727e-13
3.61618577052e-13
2.93299784951e-13
3.58607893389e-13
2.87390197877e-13
3.55549500218e-13
2.8224704166e-13
3.524978985e-13
2.77817364391e-13
3.49514896477e-13
2.74049342721e-13
3.46667949193e-13
2.70890870864e-13
3.44027764217e-13
2.68286975476e-13
3.41673175638e-13
2.66174819231e-13
3.39657465737e-13
2.64491666126e-13
3.38003566677e-13
2.63179389338e-13
3.36724734995e-13
2.62181279237e-13
3.35822812484e-13
2.61440408468e-13
3.35290597272e-13
2.60892758158e-13
3.35128723497e-13
2.6047052831e-13
3.35283256545e-13
2.60115051957e-13
3.35691933956e-13
2.59778170563e-13
3.36292041812e-13
2.59422928397e-13
3.37026516185e-13
2.59023175327e-13
3.37848017694e-13
2.58562586568e-13
3.38720579198e-13
2.58032802268e-13
3.39619477672e-13
2.57430825239e-13
3.40530253517e-13
2.5675733871e-13
3.41446704837e-13
2.56017078064e-13
3.42367451327e-13
2.55218949228e-13
3.43292662825e-13
2.54373103393e-13
3.4422333262e-13
2.53486824188e-13
3.45162483839e-13
2.52564181826e-13
3.46114784797e-13
2.51609877528e-13
3.47083473843e-13
2.50631618667e-13
3.48067931408e-13
2.49637490103e-13
3.49064919654e-13
2.48631407112e-13
3.50071454783e-13
2.47613667505e-13
3.51084827583e-13
2.46587335164e-13
3.52099106363e-13
2.45565608382e-13
3.53102028594e-13
2.44574732063e-13
3.54075740163e-13
2.43652404346e-13
3.55000722702e-13
2.42841302235e-13
3.55861304114e-13
2.42179292453e-13
3.56649943759e-13
2.41686174225e-13
3.57371980653e-13
2.41352523054e-13
3.58047827277e-13
2.41126114358e-13
3.58714933769e-13
2.40910048468e-13
3.594249723e-13
2.40570184129e-13
3.60237886765e-13
2.39942381753e-13
3.61210642755e-13
2.38880234987e-13
3.62380734631e-13
2.37280560835e-13
3.63757575255e-13
2.35329047887e-13
3.65184164155e-13
)
;

boundaryField
{
    inletfuel
    {
        type            calculated;
        value           uniform 0;
    }