/*--------------------------------*- C++ -*----------------------------------*\
  =========                 |
  \\      /  F ield         | OpenFOAM: The Open Source CFD Toolbox
   \\    /   O peration     | Website:  https://openfoam.org
    \\  /    A nd           | Version:  dev
     \\/     M anipulation  |
\*---------------------------------------------------------------------------*/
FoamFile
{
    version     2.0;
    format      ascii;
    class       surfaceScalarField;
    location    "0.3";
    object      phi;
}
// * * * * * * * * * * * * * * * * * * * * * * * * * * * * * * * * * * * * * //

dimensions      [1 0 -1 0 0 0 0];

internalField   nonuniform List<scalar> 
3166
(
-4.00413090656e-09
2.81396212466e-07
-2.08345666087e-08
8.49002121073e-07
1.36626587905e-06
-3.27322531401e-09
2.84669423884e-07
-9.48458183852e-09
8.55213453393e-07
1.35678128805e-06
-1.62137920615e-09
2.86290806411e-07
-3.63319174751e-09
8.57225265419e-07
1.35314808617e-06
2.95560750377e-09
2.83335188486e-07
1.93275167628e-08
8.40853337512e-07
1.28613351069e-06
8.63421079493e-08
5.35690634363e-11
2.83281621397e-07
3.20482140724e-09
8.37702313911e-07
1.25618516471e-06
3.315660977e-08
6.41932201821e-10
2.82639689775e-07
1.00589315275e-08
8.28285720302e-07
1.21081573999e-06
5.54318559601e-08
1.02366973796e-09
2.81615892079e-07
1.30053945195e-08
8.1630377288e-07
1.17127534002e-06
5.25458041427e-08
1.68485927518e-09
2.79930407638e-07
1.64595086209e-08
8.01526470427e-07
1.13566994007e-06
5.20601237195e-08
3.81625696213e-09
2.76112176182e-07
2.49851515192e-08
7.80351832476e-07
1.09669899417e-06
6.3948904792e-08
5.98658073853e-09
2.70121729973e-07
3.10556724652e-08
7.55274472479e-07
1.05834941734e-06
6.93996025631e-08
8.03806731885e-09
2.62078537388e-07
3.53085009219e-08
7.27995743899e-07
1.02179602831e-06
7.18607576131e-08
1.00022926312e-08
2.5207133376e-07
3.94054459685e-08
6.98586547479e-07
9.85223244244e-07
7.59818326716e-08
1.17784144975e-08
2.40289670208e-07
4.3903940014e-08
6.66458476161e-07
9.45827866926e-07
8.33063245938e-08
1.2997233667e-08
2.27291222058e-07
4.72456750253e-08
6.32210604208e-07
9.03629413078e-07
8.94518912332e-08
1.35586817403e-08
2.13732525544e-07
4.88596592015e-08
5.96911180667e-07
8.59855021399e-07
9.26395752043e-08
1.36753105979e-08
2.00057030347e-07
4.93686969499e-08
5.61217670129e-07
8.15166245768e-07
9.40580094597e-08
1.35341276208e-08
1.86521569105e-07
4.91779853944e-08
5.25570141121e-07
7.69887169767e-07
9.44517424502e-08
1.31467596168e-08
1.733722881e-07
4.80753415276e-08
4.9063498807e-07
7.24833195701e-07
9.31202085422e-08
1.24957588988e-08
1.60873662552e-07
4.5925940528e-08
4.57197698911e-07
6.81147965871e-07
8.96024170666e-08
1.16586988188e-08
1.49212947055e-07
4.30186804679e-08
4.25833244635e-07
6.39743016674e-07
8.44197037781e-08
1.08261829364e-08
1.3838652539e-07
4.01339621087e-08
3.96525940032e-07
6.00590051135e-07
7.92904889906e-08
1.01049129811e-08
1.28283192766e-07
3.76967391963e-08
3.68939404086e-07
5.63139688929e-07
7.51571345872e-08
9.37844809485e-09
1.18907430696e-07
3.51445090278e-08
3.43181345495e-07
5.27658510458e-07
7.06387435911e-08
8.57629230387e-09
1.10333830055e-07
3.22277505072e-08
3.19537599505e-07
4.94741108956e-07
6.51569108943e-08
7.81053100249e-09
1.02525084515e-07
2.94564364559e-08
2.97896643375e-07
4.64300155602e-07
5.99044910093e-08
7.18429307036e-09
9.5341221571e-08
2.7238790478e-08
2.77843135916e-07
4.35719340349e-07
5.58204347736e-08
6.63093584735e-09
8.87092552536e-08
2.52462630997e-08
2.59224570165e-07
4.08836898645e-07
5.21228812615e-08
6.06436931322e-09
8.26425430001e-08
2.31631245457e-08
2.42118744396e-07
3.83871484209e-07
4.81167165667e-08
5.48608752293e-09
7.71531084969e-08
2.10115472212e-08
2.26583361275e-07
3.61002903742e-07
4.38640166998e-08
4.97402778738e-09
7.21753755814e-08
1.91118499976e-08
2.12434697052e-07
3.39993879203e-07
4.01037693786e-08
4.56976420232e-09
6.76024187182e-08
1.7634414114e-08
1.99360862928e-07
3.2037723177e-07
3.72370766096e-08
4.20476289971e-09
6.33958311559e-08
1.62759011717e-08
1.87284657322e-07
3.02083891831e-07
3.45621017431e-08
3.82417174298e-09
5.95717131361e-08
1.48329852731e-08
1.76276276742e-07
2.85285064138e-07
3.16333842998e-08
3.46356332058e-09
5.61099256967e-08
1.34663847276e-08
1.66278842881e-07
2.69927396483e-07
2.88331645884e-08
3.16854974514e-09
5.29441449975e-08
1.23571602958e-08
1.57098390778e-07
2.55721005062e-07
2.6576610346e-08
2.91815260144e-09
5.00287403477e-08
1.14079421726e-08
1.48616575359e-07
2.42503083953e-07
2.46382425377e-08
2.67256930896e-09
4.73580069635e-08
1.04666400628e-08
1.40827744941e-07
2.30293843573e-07
2.26837203477e-08
2.4254122477e-09
4.49331260706e-08
9.51345893279e-09
1.33741112258e-07
2.19131857922e-07
2.06772193579e-08
2.19924789564e-09
4.27332806402e-08
8.64035133789e-09
1.27298157328e-07
2.0893822273e-07
1.88307205857e-08
2.0100544865e-09
4.07220775443e-08
7.91128477566e-09
1.2139351424e-07
1.99553815749e-07
1.72901300258e-08
1.84630540077e-09
3.88747130564e-08
7.27713032742e-09
1.15959583355e-07
1.90881263697e-07
1.59447566704e-08
1.69124464148e-09
3.71828992429e-08
6.67364069407e-09
1.10975542807e-07
1.82897924258e-07
1.46544528977e-08
1.54148949503e-09
3.56413772943e-08
6.08895249699e-09
1.06428012075e-07
1.75591456832e-07
1.33954080116e-08
1.40310553759e-09
3.42385564478e-08
5.54749677342e-09
1.02284473944e-07
1.68916162435e-07
1.22242135633e-08
1.28189939213e-09
3.29569844223e-08
5.07301016333e-09
9.84943284899e-08
1.62794695003e-07
1.11960392632e-08
1.17637155319e-09
3.17808107957e-08
4.65923466771e-09
9.50120446842e-08
1.57157263252e-07
1.02975921223e-08
1.08072139409e-09
3.07001599074e-08
4.28321830598e-09
9.18097411724e-08
1.51962629505e-07
9.47815990396e-09
9.91334263809e-10
2.97088389238e-08
3.93110231601e-09
8.88700107743e-08
1.47186154758e-07
8.70764465494e-09
9.07519179017e-10
2.88013578214e-08
3.60026524543e-09
8.61773790479e-08
1.42805812084e-07
7.98080284624e-09
8.28710813004e-10
2.79727191703e-08
3.28858761714e-09
8.37177178207e-08
1.38801204432e-07
7.29354918263e-09
7.52751750224e-10
2.72200302581e-08
2.98763147695e-09
8.14830233279e-08
1.3516131314e-07
6.62781546687e-09
6.76673720749e-10
2.65433574819e-08
2.68582406594e-09
7.94738725543e-08
1.3188826078e-07
5.95885579218e-09
5.98973685506e-10
2.59442958622e-08
2.37757998893e-09
7.76949966525e-08
1.28989793699e-07
5.27558313695e-09
5.21007291492e-10
2.54231245905e-08
2.06848660136e-09
7.61470244095e-08
1.26466095783e-07
4.5913614746e-09
4.47858421551e-10
2.49750863795e-08
1.77879705152e-09
7.48155328046e-08
1.242924274e-07
3.95155056753e-09
3.8710195562e-10
2.45878151911e-08
1.53877267442e-09
7.36633584922e-08
1.22406900669e-07
3.42347602752e-09
3.46171426651e-10
2.42415118164e-08
1.37767900089e-09
7.26314531032e-08
1.20712159021e-07
3.0717683898e-09
3.29443244193e-10
2.39119358214e-08
1.31310453077e-09
7.16473872114e-08
1.19089094589e-07
2.93549094576e-09
3.36833753103e-10
2.35748724353e-08
1.34420192813e-09
7.06393244664e-08
1.17420225715e-07
3.0118737007e-09
3.66588159156e-10
2.32078737489e-08
1.46411656137e-09
6.95404327089e-08
1.15596556586e-07
3.28563993987e-09
4.22395167728e-10
2.2784789582e-08
1.68747251086e-09
6.82732919016e-08
1.13491770328e-07
3.78878715989e-09
4.73739789328e-10
2.23104072735e-08
1.89338463438e-09
6.68517293513e-08
1.11132488658e-07
4.249495525e-09
2.48947725445e-10
9.92904444233e-10
2.22515298594e-09
7.22191209512e-07
-6.35850224407e-07
8.69133524947e-07
-1.13787158415e-07
9.58035503768e-07
-3.34669721172e-08
1.0071559317e-06
3.42714018255e-09
1.01810111266e-06
4.11104806711e-08
1.0052686708e-06
7.67744139219e-08
9.85969704925e-07
8.86966080125e-08
9.65950383893e-07
9.18860059034e-08
9.43768980223e-07
9.81747239326e-08
9.16248611014e-07
1.10840482242e-07
8.84304321558e-07
1.21408215166e-07
8.50153035271e-07
1.26797745583e-07
8.14796328058e-07
1.294147066e-07
7.78227100067e-07
1.3101444173e-07
7.40986371989e-07
1.30351674445e-07
7.04169816433e-07
1.26411745063e-07
6.68757732433e-07
1.19830827576e-07
6.3465791654e-07
1.13397298956e-07
6.01170765256e-07
1.0865724605e-07
5.68693815576e-07
1.03130615031e-07
5.38078798075e-07
9.57844991231e-08
5.09335062933e-07
8.86552132376e-08
4.81803751911e-07
8.33516833135e-08
4.55397515541e-07
7.85216534898e-08
4.30490424282e-07
7.30097387281e-08
4.07404752623e-07
6.69312449808e-08
3.85941501594e-07
6.15481187818e-08
3.65604454076e-07
5.75594227416e-08
3.46385287418e-07
5.37746449306e-08
3.28560191511e-07
4.9461529747e-08
3.12119723976e-07
4.52846275219e-08
2.96759394902e-07
4.19516821904e-08
2.82328827951e-07
3.90822249532e-08
2.68891829829e-07
3.6128771393e-08
2.56526887524e-07
3.30434400711e-08
2.45166414978e-07
3.01870469082e-08
2.34642937394e-07
2.78071669611e-08
2.24861184917e-07
2.57210051097e-08
2.15811669465e-07
2.370127046e-08
2.07494474232e-07
2.17127349144e-08
1.99867610826e-07
1.98527678938e-08
1.92849014278e-07
1.82164236033e-08
1.86364356465e-07
1.6783291911e-08
1.80372311765e-07
1.54705349757e-08
1.74850228227e-07
1.42298131976e-08
1.69777655468e-07
1.30536141068e-08
1.6513511003e-07
1.19365104549e-08
1.60912981442e-07
1.08502714584e-08
1.57115508276e-07
9.75627366764e-09
1.53751603199e-07
8.63890751162e-09
1.50820015143e-07
7.52196135451e-09
1.48289978987e-07
6.48048521984e-09
1.46087507737e-07
5.62498299306e-09
1.44097732628e-07
5.06077501662e-09
1.42180649661e-07
4.85174971822e-09
1.40199192671e-07
4.99185325768e-09
1.38026786653e-07
5.45533422365e-09
1.35516613607e-07
6.29481304739e-09
1.32707140266e-07
7.055271929e-09
3.68857604124e-09
-7.0754560753e-09
8.96719257312e-07
-3.45654134539e-08
1.44861890281e-06
-5.03033082366e-08
2.09893509854e-06
-5.40814276991e-08
2.90660291065e-06
-4.67131127897e-08
3.90485387325e-06
-3.06832416703e-08
5.13379266192e-06
-9.39216571476e-09
6.64016346758e-06
1.40353718131e-08
8.47830704298e-06
3.75388372967e-08
1.07122142105e-05
6.02236065258e-08
1.34181715136e-05
8.23501273065e-08
1.66871965833e-05
1.05282744242e-07
2.06278333111e-05
1.31568350074e-07
2.53692885656e-05
1.65327118545e-07
3.10649933234e-05
2.12815343484e-07
3.7897022706e-05
2.84868248545e-07
4.60796601525e-05
3.88118255272e-07
5.58770751791e-05
5.96243316179e-07
6.75309427922e-05
6.55529685767e-07
8.17351899558e-05
9.92372596054e-05
-5.98614043357e-08
9.56580568023e-07
-9.40851947417e-08
1.48284256092e-06
-9.83995160573e-08
2.10324924661e-06
-8.55989097625e-08
2.89380211977e-06
-6.26672051719e-08
3.88192198401e-06
-3.52596924319e-08
5.10638499712e-06
-7.24595714853e-09
6.61214965432e-06
1.93575165489e-08
8.45170358217e-06
4.38889864814e-08
1.06876828557e-05
6.65647227495e-08
1.33954959746e-05
8.83694952502e-08
1.66653920407e-05
1.11058216085e-07
2.06051448245e-05
1.37385499755e-07
2.53429615242e-05
1.71711448072e-07
3.10306676278e-05
2.20388998017e-07
3.78483453995e-05
2.96475737956e-07
4.60035736762e-05
4.01260968484e-07
5.57722903855e-05
5.72135985862e-07
6.73600686214e-05
6.99997601484e-07
8.16073297233e-05
9.99372591132e-05
-1.68319449615e-07
1.12489993485e-06
-1.4710874852e-07
1.461631715e-06
-1.1824166592e-07
2.07438200167e-06
-8.59271242219e-08
2.86148736631e-06
-5.39785135485e-08
3.84997315474e-06
-2.53299517135e-08
5.07773622515e-06
-5.10486643304e-10
6.58733001993e-06
2.08948507533e-08
8.43029813865e-06
3.95359711014e-08
1.06690417176e-05
5.62848437675e-08
1.33787471653e-05
7.22721910712e-08
1.66494048006e-05
8.9023301896e-08
2.05883938191e-05
1.08727956808e-07
2.53232569687e-05
1.34799560204e-07
3.10045961392e-05
1.72311899492e-07
3.78108331902e-05
2.31280620022e-07
4.59446051156e-05
3.21699125056e-07
5.56818721502e-05
4.59998134802e-07
6.72217701048e-05
6.30688996698e-07
8.1436639644e-05
0.000100567949168
-4.60251392265e-07
9.49300789626e-07
-2.94837150995e-07
1.29621733084e-06
-1.95070464115e-07
1.97461510782e-06
-1.21004699739e-07
2.7874213536e-06
-6.42122326564e-08
3.79318039741e-06
-2.1218837666e-08
5.03474252843e-06
1.17949550325e-08
6.55431593762e-06
3.80917819233e-08
8.40400109631e-06
5.99708038742e-08
1.06471625874e-05
7.92943996465e-08
1.3359423578e-05
9.78067815443e-08
1.66308924904e-05
1.17528116083e-07
2.0568672559e-05
1.41211156404e-07
2.52995739926e-05
1.73158144121e-07
3.09726492332e-05
2.19926557075e-07
3.7764064896e-05
2.95127965566e-07
4.58694038695e-05
4.16679665501e-07
5.5560320708e-05
6.33927251729e-07
6.70045229911e-05
9.65919887871e-07
8.11046477576e-05
9.71839747922e-05
4.34989527495e-06
-3.75630157569e-07
1.2111516398e-06
-3.06374350214e-07
1.22696296987e-06
-1.88211780288e-07
1.8564523833e-06
-1.00536506903e-07
2.69974581144e-06
-3.95522328897e-08
3.73219580589e-06
4.68632973018e-09
4.99050359994e-06
3.7919778052e-08
6.52108212506e-06
6.40334147627e-08
8.37788713604e-06
8.58289816457e-08
1.06253668105e-05
1.05434308976e-07
1.33398181827e-05
1.24763755704e-07
1.66115630733e-05
1.46043190445e-07
2.0547393168e-05
1.72365671664e-07
2.52732515435e-05
2.08694558265e-07
3.09363204104e-05
2.62939927872e-07
3.77098196535e-05
3.51772768842e-07
4.578057123e-05
5.03088624926e-07
5.54090051661e-05
8.16531885337e-07
6.66910802381e-05
1.50159642265e-06
8.04195839663e-05
9.48002000277e-05
3.88537214869e-06
-2.21876192205e-07
1.39959590519e-06
-1.23307173078e-07
1.1283984703e-06
-3.16094231418e-08
1.76475454431e-06
1.15887273673e-08
2.65654753367e-06
3.86697393692e-08
3.70511452415e-06
6.18919069518e-08
4.96728106113e-06
8.27359626854e-08
6.50023763442e-06
1.01719815726e-07
8.35890284682e-06
1.19563671928e-07
1.06075226434e-05
1.37175063727e-07
1.33222066409e-05
1.55862989863e-07
1.65928751273e-05
1.7764800934e-07
2.05256081647e-05
2.05716158112e-07
2.52451834062e-05
2.45475540926e-07
3.08965610789e-05
3.05925390536e-07
3.7649369944e-05
4.06204289055e-07
4.56802925649e-05
5.80952250217e-07
5.52342575508e-05
9.44425155963e-07
6.63276078506e-05
1.73082172708e-06
7.96331881197e-05
9.26683423796e-05
3.86268028437e-06
-1.48797555201e-07
1.55187706926e-06
1.73215457703e-07
8.06352285195e-07
2.679805081e-07
1.6699877238e-06
2.04454076151e-07
2.72007370601e-06
1.60815788721e-07
3.74875260164e-06
1.44926397647e-07
4.9831701123e-06
1.43500427345e-07
6.5016630987e-06
1.4999390693e-07
8.35240887727e-06
1.60796179454e-07
1.05967199577e-05
1.74435863846e-07
1.33085667442e-05
1.91068674087e-07
1.65762422597e-05
2.12206901984e-07
2.05044699348e-05
2.40902598185e-07
2.52164877127e-05
2.82721607295e-07
3.08547421242e-05
3.471923291e-07
3.75848993872e-05
4.54334271726e-07
4.55731509064e-05
6.39689930914e-07
5.50489022992e-05
1.00155571105e-06
6.59657426367e-05
1.76129825109e-06
7.88734463205e-05
9.10456252159e-05
3.3840163101e-06
-5.75693000032e-08
1.65041744608e-06
2.00708053589e-07
5.47963122303e-07
3.15664338077e-07
1.55470399628e-06
2.93589858433e-07
2.74204844933e-06
2.48437237231e-07
3.79389466379e-06
2.17788384519e-07
5.01381811402e-06
2.04333861926e-07
6.51511713286e-06
2.02192028924e-07
8.35455011056e-06
2.06784171203e-07
1.05921273697e-05
2.16078422979e-07
1.32992722273e-05
2.29844685445e-07
1.65624759123e-05
2.49328916448e-07
2.04849856905e-05
2.77425980684e-07
2.5188390646e-05
3.19597399775e-07
3.08125707596e-05
3.85212952591e-07
3.75192840128e-05
4.93230719562e-07
4.54651334514e-05
6.75862898647e-07
5.48662705579e-05
1.00236099347e-06
6.563924512e-05
1.65465455879e-06
7.82211534744e-05
8.99850277966e-05
2.71525280352e-06
-1.24153444109e-08
1.7394455263e-06
-7.68274643585e-08
6.12239501579e-07
9.26160170982e-08
1.38512610038e-06
2.00893575036e-07
2.63368557469e-06
2.41115767971e-07
3.75366312613e-06
2.4961269743e-07
5.00532080866e-06
2.50487910759e-07
6.5142414092e-06
2.51191693581e-07
8.35384575221e-06
2.54089549845e-07
1.05892290051e-05
2.60414836772e-07
1.32929466669e-05
2.71282969288e-07
1.65516076812e-05
2.88399275401e-07
2.0467869359e-05
3.14696554365e-07
2.51620933631e-05
3.55358882191e-07
3.07719084944e-05
4.1900614403e-07
3.74556369405e-05
5.22009611572e-07
4.53621303136e-05
6.91253188571e-07
5.46970274451e-05
9.65345948374e-07
6.53651529577e-05
1.47701470076e-06
7.77094854294e-05
8.93490647419e-05
2.11297852722e-06
-1.7342165168e-08
1.84540499341e-06
-1.88353923468e-07
7.83198503875e-07
-3.20070383858e-08
1.22879538118e-06
1.42774517756e-07
2.45893694453e-06
2.39013167285e-07
3.65742624562e-06
2.78890398689e-07
4.96544444045e-06
2.942753864e-07
6.49885614767e-06
2.99727046989e-07
8.34839352321e-06
3.02520116849e-07
1.0586435483e-05
3.06630784852e-07
1.32888357403e-05
3.14597995973e-07
1.65436403674e-05
3.2875942193e-07
2.04537078955e-05
3.52129988585e-07
2.51387227871e-05
3.8945348587e-07
3.07345850557e-05
4.48195688097e-07
3.73968949131e-05
5.41273399027e-07
4.52690529071e-05
6.89661739739e-07
5.45486395404e-05
9.05712597919e-07
6.51491026561e-05
1.27918057281e-06
7.73360180889e-05
8.89970911069e-05
1.63115484424e-06
-1.23669635962e-08
1.94966509633e-06
-2.08064434437e-07
9.78907190225e-07
1.18801018741e-07
9.02022009554e-07
3.41755364726e-07
2.23599937743e-06
3.74156180692e-07
3.62503616739e-06
3.69168885677e-07
4.97043470458e-06
3.63474794927e-07
6.50455046066e-06
3.58527779177e-07
8.35334017649e-06
3.55396778725e-07
1.0589566154e-05
3.55225310573e-07
1.32890070179e-05
3.59409848358e-07
1.65394557342e-05
3.69861928872e-07
2.04432557517e-05
3.89234482303e-07
2.51193502097e-05
4.21553724503e-07
3.07022658684e-05
4.7287111138e-07
3.73455776794e-05
5.52341951013e-07
4.51895823286e-05
6.75228217765e-07
5.44257536651e-05
8.3405760747e-07
6.499027378e-05
1.0862316832e-06
7.70838445865e-05
8.88320846539e-05
1.25123868848e-06
2.72751599551e-08
2.02060442719e-06
-1.33043668332e-07
1.13934729674e-06
2.1251267031e-07
5.56572509938e-07
4.66055425184e-07
1.98257660811e-06
5.07403008045e-07
3.58373881603e-06
4.77867629645e-07
4.99998384152e-06
4.46406645359e-07
6.53601420227e-06
4.24956284453e-07
8.37479082626e-06
4.12141919361e-07
1.0602380467e-05
4.05748562355e-07
1.32954003262e-05
4.05164492996e-07
1.65400397252e-05
4.11172880722e-07
2.04372472673e-05
4.25618142243e-07
2.51049049042e-05
4.51539273281e-07
3.06763447843e-05
4.93439785078e-07
3.73036772921e-05
5.56812270687e-07
4.51262100481e-05
6.51824136342e-07
5.43307421305e-05
7.57425411368e-07
6.48846729621e-05
9.08431725873e-07
7.69328387782e-05
8.87873355614e-05
9.5318127396e-07
8.55633658935e-08
2.04593013029e-06
-3.33527396948e-08
1.25841755625e-06
6.57961329543e-08
4.57469434208e-07
3.06050814565e-07
1.74235526424e-06
4.61711326523e-07
3.42815361577e-06
5.02005000121e-07
4.95972134021e-06
4.94709257041e-07
6.54331751797e-06
4.78758838071e-07
8.39074275778e-06
4.64715854473e-07
1.06164238431e-05
4.54955903696e-07
1.330516041e-05
4.50409649357e-07
1.65445859337e-05
4.51954113869e-07
2.04357026761e-05
4.60939237025e-07
2.50959197158e-05
4.79459610482e-07
3.06578244571e-05
5.10529959531e-07
3.72726070464e-05
5.56374093373e-07
4.50803660701e-05
6.22903851011e-07
5.42642126597e-05
6.80787188388e-07
6.4826790062e-05
7.50313812857e-07
7.68633126552e-05
8.88156520964e-05
7.21997770485e-07
1.21081540928e-07
2.04629179685e-06
1.02651929057e-08
1.36930853318e-06
-2.1196817143e-08
4.88973923074e-07
1.71704582594e-07
1.54969239214e-06
3.93336806976e-07
3.20668694888e-06
4.93947379632e-07
4.85917211673e-06
5.18951327985e-07
6.51832828111e-06
5.18174632389e-07
8.39152256534e-06
5.09553194121e-07
1.06250461325e-05
5.00261930752e-07
1.33144519927e-05
4.93670280558e-07
1.65511775888e-05
4.91469452071e-07
2.04379033688e-05
4.94955522967e-07
2.50924335722e-05
5.05524244979e-07
3.06472557804e-05
5.24930242972e-07
3.72532011313e-05
5.5271616845e-07
4.50525802589e-05
5.91459525596e-07
5.42254695558e-05
6.07746150081e-07
6.48105038672e-05
6.13407649238e-07
7.68576516763e-05
8.88850868975e-05
5.43973381027e-07
1.36639584939e-07
2.03646223906e-06
2.31839008495e-08
1.48278614018e-06
-1.2920698882e-07
6.41383822044e-07
2.38649221912e-07
1.18217268985e-06
5.04995748922e-07
2.94061932736e-06
5.73925824947e-07
4.79035696176e-06
5.75299816988e-07
6.51698190017e-06
5.65308997173e-07
8.40151888779e-06
5.53773934623e-07
1.06365825665e-05
5.43300169101e-07
1.3324926225e-05
5.35015985634e-07
1.65594618488e-05
5.29583505534e-07
2.04433357345e-05
5.27730289311e-07
2.50942867271e-05
5.30147544329e-07
3.06448385757e-05
5.37551934762e-07
3.72457968124e-05
5.47450874956e-07
4.50426814179e-05
5.59967514611e-07
5.4212953175e-05
5.40713874856e-07
6.48297579754e-05
4.97108426649e-07
7.69012577204e-05
8.89753982299e-05
4.06797780324e-07
1.4699711485e-07
2.01887019441e-06
3.60751615044e-08
1.59369934508e-06
-1.68673242452e-07
8.4609993066e-07
2.34551595842e-07
7.79317487568e-07
5.37352284151e-07
2.63842957579e-06
6.29584023e-07
4.69839507509e-06
6.29110695184e-07
6.51751566033e-06
6.1182642145e-07
8.418813656e-06
5.96616742258e-07
1.06517942685e-05
5.84825906033e-07
1.33367176922e-05
5.75135217911e-07
1.65691526763e-05
5.66796936146e-07
2.04516739661e-05
5.59753899345e-07
2.51013297452e-05
5.5399535584e-07
3.06505971807e-05
5.49402925192e-07
3.72503893169e-05
5.42056561661e-07
4.50500278972e-05
5.30370105014e-07
5.42246399355e-05
4.81098063738e-07
6.48790305615e-05
3.99677912687e-07
7.69826785852e-05
8.90743946557e-05
3.00682354108e-07
1.59919867544e-07
1.98994281335e-06
7.5703652436e-08
1.67789625775e-06
-8.59600902665e-08
1.00771124714e-06
7.36780217441e-08
6.19834802438e-07
3.50295929084e-07
2.36246189974e-06
5.33053225969e-07
4.51598199927e-06
6.03554682866e-07
6.44709764874e-06
6.23181078418e-07
8.39920162826e-06
6.25819669379e-07
1.06491582303e-05
6.21783314492e-07
1.33407547192e-05
6.1404807606e-07
1.65768881402e-05
6.03875971652e-07
2.04618461133e-05
5.91880799154e-07
2.51133249596e-05
5.77970154997e-07
3.06645079158e-05
5.61554093793e-07
3.72668054809e-05
5.3784563597e-07
4.50737365464e-05
5.04124170314e-07
5.42583618254e-05
4.2959239945e-07
6.49535630258e-05
3.19067893572e-07
7.70932039947e-05
8.91750581635e-05
2.18405572395e-07
1.69159097859e-07
1.95111522283e-06
1.08768563473e-07
1.73827059345e-06
-3.3359894224e-08
1.14976390699e-06
-1.52481386987e-08
6.01713140689e-07
2.04156459515e-07
2.1436734131e-06
4.2706541983e-07
4.29338350677e-06
5.61934567105e-07
6.31230494623e-06
6.25341426285e-07
8.33580767288e-06
6.51967199682e-07
1.06225345267e-05
6.5903864123e-07
1.33336838537e-05
6.54526639558e-07
1.65814003882e-05
6.4265513474e-07
2.0473717743e-05
6.25442824892e-07
2.51305373996e-05
6.03178520692e-07
3.0686772369e-05
5.75089237687e-07
3.72948949486e-05
5.35946407069e-07
4.51128797156e-05
4.82280907679e-07
5.43120279402e-05
3.86431185041e-07
6.50494136482e-05
2.53298222238e-07
7.72263381078e-05
8.92736395215e-05
1.54718406353e-07
1.71115232704e-07
1.90640662385e-06
1.268017853e-07
1.78258390208e-06
-1.03932329297e-09
1.27753035235e-06
-6.00842873008e-08
6.60670862802e-07
1.84467140384e-07
1.89952328915e-06
4.69927911971e-07
4.0081103437e-06
6.27766463994e-07
6.15450300419e-06
6.89638092431e-07
8.2739398772e-06
7.11303383699e-07
1.06008692912e-05
7.13684851277e-07
1.33313024671e-05
7.0432811169e-07
1.65907572408e-05
6.86730222592e-07
2.04913157862e-05
6.62311007212e-07
2.51549568384e-05
6.30836146545e-07
3.07182474827e-05
5.91016757376e-07
3.73347146757e-05
5.37273501744e-07
4.51666235449e-05
4.65549541729e-07
5.43837527953e-05
3.51545555393e-07
6.51634188203e-05
2.00557572038e-07
7.7377327566e-05
8.93684251569e-05
1.0577394703e-07
1.66814903255e-07
1.8594399788e-06
1.30911705008e-07
1.81851111535e-06
6.47172791224e-09
1.40193601375e-06
-1.32430248806e-07
7.99429604318e-07
3.13081616616e-07
1.45404759737e-06
7.0569539801e-07
3.61540436016e-06
8.32423296061e-07
6.02770614162e-06
8.3786443107e-07
8.26847768323e-06
8.18003430033e-07
1.06207252465e-05
7.93996630621e-07
1.33553082033e-05
7.67863500479e-07
1.66168901911e-05
7.38369473852e-07
2.05208099729e-05
7.03741785829e-07
2.51895848889e-05
6.61801765212e-07
3.07601879485e-05
6.10069285101e-07
3.73864477381e-05
5.4246144859e-07
4.52342322816e-05
4.54328068166e-07
5.44718874317e-05
3.2464868956e-07
6.52930997461e-05
1.59220049818e-07
7.75427580843e-05
8.94589131981e-05
6.87346522651e-08
1.6382290665e-07
1.80905279416e-06
1.38897169187e-07
1.84348058882e-06
2.49653726816e-08
1.51586047911e-06
-1.53776790705e-07
9.78016914596e-07
2.97685905502e-07
1.00248308262e-06
7.38175662627e-07
3.17445424283e-06
9.24162450137e-07
5.84142448605e-06
9.43947857746e-07
8.24861190989e-06
9.12732365159e-07
1.06519242121e-05
8.73578220948e-07
1.33944590848e-05
8.34260504307e-07
1.66562073278e-05
7.93451483995e-07
2.05616192347e-05
7.48369838129e-07
2.52346671499e-05
6.95810736012e-07
3.08127477809e-05
6.32416430284e-07
3.74498429745e-05
5.51774432905e-07
4.53148755956e-05
4.48713995998e-07
5.4574949563e-05
3.05287687316e-07
6.54365280459e-05
1.27840740846e-07
7.77202074345e-05
8.95452690428e-05
4.14882433755e-08
1.65781888709e-07
1.75197727324e-06
1.59425792616e-07
1.84988918901e-06
7.54343161514e-08
1.59986793381e-06
-6.97654126418e-08
1.12314007268e-06
8.65601213834e-08
8.46030884678e-07
4.67498101053e-07
2.79265542498e-06
7.7478983929e-07
5.53355567549e-06
9.07100606539e-07
8.11614131588e-06
9.34190197201e-07
1.0624802342e-05
9.19462952151e-07
1.34091802341e-05
8.8704802007e-07
1.66886212842e-05
8.44262902588e-07
2.06044047859e-05
7.92834874571e-07
2.52860961287e-05
7.31545321818e-07
3.08740384488e-05
6.57641456561e-07
3.75237481996e-05
5.65100513463e-07
4.54074183321e-05
4.48534586933e-07
5.46915176691e-05
2.92885016111e-07
6.55921801202e-05
1.05134063189e-07
7.79079613974e-05
8.9627993824e-05
2.24136132445e-08
1.63628996156e-07
1.69152658413e-06
1.69411735778e-07
1.84415632638e-06
1.03278314123e-07
1.66603468763e-06
-2.42782575632e-08
1.25071760395e-06
-1.56859707227e-08
8.37444310188e-07
2.96408818835e-07
2.47918250688e-06
6.72193919176e-07
5.15698673381e-06
8.80344733556e-07
7.90777470798e-06
9.50181284754e-07
1.05549213163e-05
9.57016104709e-07
1.34023373262e-05
9.33474326234e-07
1.6712162015e-05
8.91686996728e-07
2.06461928789e-05
8.3644414816e-07
2.53413403283e-05
7.68285489323e-07
3.09421986441e-05
6.85298213206e-07
3.76067373248e-05
5.82149791142e-07
4.55105690755e-05
4.53440978081e-07
5.48202291978e-05
2.86787561836e-07
6.57588366343e-05
8.99414108985e-08
7.81048113399e-05
8.97077162786e-05
1.02244203648e-08
1.55292601332e-07
1.63205427905e-06
1.65321211087e-07
1.83416417164e-06
1.05013735631e-07
1.72637778797e-06
-2.23933819181e-08
1.37820335787e-06
-1.23055798739e-07
9.38247968816e-07
3.87271730148e-07
1.96764010367e-06
8.44033665333e-07
4.69956723887e-06
1.03067851144e-06
7.72095088033e-06
1.05934908861e-06
1.05262116414e-05
1.03732837778e-06
1.34243517067e-05
9.97100462353e-07
1.67523898464e-05
9.45285536405e-07
2.06980091453e-05
8.82483116283e-07
2.54041444935e-05
8.0688121695e-07
3.10178024931e-05
7.15441982428e-07
3.76981789278e-05
6.02718173697e-07
4.56232957754e-05
4.63043960287e-07
5.4959906719e-05
2.86329667634e-07
6.59355547459e-05
8.12025616179e-08
7.83099431743e-05
8.97851651457e-05
3.76065127899e-09
1.47364823954e-07
1.57336118857e-06
1.62188588651e-07
1.81935390605e-06
1.10142272095e-07
1.77844385226e-06
-1.29841874543e-08
1.5014146181e-06
-1.5989316954e-07
1.08537664716e-06
3.76391900165e-07
1.43067050999e-06
8.98189234327e-07
4.17749440607e-06
1.13343550892e-06
7.48572674644e-06
1.16242003982e-06
1.04972358232e-05
1.12197060908e-06
1.34648053072e-05
1.06517117621e-06
1.68091920436e-05
1.00180903024e-06
2.07613735228e-05
9.30513549373e-07
2.54754420975e-05
8.47424010871e-07
3.110089438e-05
7.48108377266e-07
3.77974974861e-05
6.26666567429e-07
4.57447410928e-05
4.76986972637e-07
5.5109590307e-05
2.90891092166e-07
6.61216553215e-05
7.79779813189e-08
7.85228622445e-05
8.98611812239e-05
1.9706428953e-09
1.43894945143e-07
1.51281167329e-06
1.68604213655e-07
1.79462977597e-06
1.35430954795e-07
1.81160894926e-06
4.04623024329e-08
1.5964398289e-06
-8.65104722994e-08
1.21257034401e-06
1.54925336272e-07
1.18916132247e-06
6.45022014278e-07
3.68826500851e-06
9.89947108769e-07
7.14135966248e-06
1.11565587918e-06
1.03716622611e-05
1.12824243892e-06
1.34522480737e-05
1.09653471978e-06
1.6840907781e-05
1.04315444448e-06
2.08147572049e-05
9.73583451611e-07
2.55450156105e-05
8.87659884609e-07
3.11868207366e-05
7.82687019018e-07
3.79024738639e-05
6.53759336778e-07
4.58736729474e-05
4.94947417277e-07
5.52684070135e-05
2.99931401095e-07
6.63166771381e-05
7.94977532103e-08
7.87433033408e-05
8.99366157928e-05
4.074139539e-09
1.39932164631e-07
1.45137123973e-06
1.72362021409e-07
1.76215598041e-06
1.54090863836e-07
1.82984232244e-06
7.90970160402e-08
1.67145323115e-06
-4.10994896613e-08
1.33290029813e-06
3.51472267506e-08
1.11300000826e-06
4.32221306052e-07
3.29285583537e-06
8.16388992361e-07
6.75818235417e-06
1.02496507824e-06
1.0163356013e-05
1.09988630527e-06
1.33773879275e-05
1.10627075665e-06
1.68345376474e-05
1.07353323166e-06
2.08474994101e-05
1.01275441619e-06
2.56057974208e-05
9.28016498948e-07
3.12715619693e-05
8.19456991268e-07
3.80110375318e-05
6.84084589652e-07
4.60090502604e-05
5.16748499474e-07
5.54357488932e-05
3.13018296246e-07
6.65204145374e-05
8.51468554467e-08
7.89711841051e-05
9.00122909544e-05
9.4853077534e-09
1.33123715093e-07
1.39120702878e-06
1.6938197217e-07
1.72583188037e-06
1.60291436031e-07
1.83887597277e-06
9.77536805385e-08
1.73398223382e-06
-1.02170737701e-08
1.44091021345e-06
-2.84400352608e-08
1.13119126128e-06
3.44141387801e-07
2.92196214619e-06
8.03151579599e-07
6.3000977332e-06
1.0647551186e-06
9.90203628762e-06
1.15349360118e-06
1.32887222956e-05
1.16145008588e-06
1.68265979734e-05
1.12778733193e-06
2.08811673996e-05
1.06463654698e-06
2.56689516589e-05
9.75841177366e-07
3.1360361268e-05
8.61428700018e-07
3.81254548766e-05
7.18696410785e-07
4.61517883589e-05
5.42530022923e-07
5.56119223334e-05
3.29836567425e-07
6.67331169776e-05
9.43906487786e-08
7.92066416204e-05
9.00890540529e-05
1.76443174393e-08
1.24122902936e-07
1.33395400705e-06
1.60949723228e-07
1.68893302355e-06
1.55470532427e-07
1.84429954426e-06
9.59764874194e-08
1.79346067431e-06
-1.68628023868e-08
1.55373148798e-06
-1.22327514761e-07
1.23648686755e-06
4.22264373561e-07
2.37816159395e-06
9.95846695779e-07
5.72671738792e-06
1.27081467693e-06
9.6271373916e-06
1.32148375591e-06
1.32380882436e-05
1.28842524369e-06
1.68596659159e-05
1.22441042566e-06
2.09451860535e-05
1.1405741302e-06