/*--------------------------------*- C++ -*----------------------------------*\
  =========                 |
  \\      /  F ield         | OpenFOAM: The Open Source CFD Toolbox
   \\    /   O peration     | Website:  https://openfoam.org
    \\  /    A nd           | Version:  dev
     \\/     M anipulation  |
\*---------------------------------------------------------------------------*/
FoamFile
{
    version     2.0;
    format      ascii;
    class       volScalarField;
    location    "0.3";
    object      Qdot;
}
// * * * * * * * * * * * * * * * * * * * * * * * * * * * * * * * * * * * * * //

dimensions      [1 -1 -3 0 0 0 0];

internalField   nonuniform List<scalar> 
1629
(
1.61085492781e-11
1.91738857651e-11
2.66138182207e-11
2.77413149965e-09
4.75112214228e-09
1.2926518813e-08
2.40123589408e-07
6.61620722492e-07
3.76984368697e-06
2.15352431131e-06
3.23512458842e-05
0.000440698632949
0.000277393061303
0.00169346951602
0.0252401590858
0.0187512544361
0.141273908754
2.34543156448
1.70812356888
20.5230946841
323.060433655
186.833037091
2198.08638322
39487.7210062
1100.46006102
6732.79013751
55984.2008711
3511.41387707
12445.6140673
55748.1290899
7376.7008859
17510.6501115
50203.5108419
12174.3875357
22217.8750207
49826.2765532
17948.5372179
28436.7532792
59244.533281
24556.0910534
35309.2539865
66807.1246099
31689.4899235
42652.6076777
74182.2982196
38566.9209232
49100.7344526
78097.0892521
44246.9694054
53809.9244624
78993.4784157
47928.9444433
56143.2734031
76544.4396242
49344.2534226
55998.5479237
71938.6576868
48931.8313115
54257.9936201
67126.3472129
47614.716473
52267.576658
63663.1155766
46067.0619687
50436.0651178
61184.669077
44295.7709783
48361.728556
58165.8261307
42066.6898553
45671.4443966
54148.8855753
39394.237768
42495.139123
49661.5008004
36626.1873518
39322.5613119
45511.3465774
34185.577949
36653.3694401
42240.0142898
32351.2453601
34644.7832155
39801.9804811
30999.6556389
33096.6681833
37782.81894
29849.7997655
31724.1012761
35876.8368233
28651.8851324
30307.4760313
33954.6433953
27388.9630985
28863.9524905
32146.1650348
26289.8027146
27660.6630822
30782.1894884
25629.141
26978.1547589
30131.2026099
25682.5956422
27106.5916885
30420.1696898
26754.5297444
28280.6958002
31838.654316
29089.4690858
30753.7617499
34618.7302111
32887.7219482
34698.3823792
38881.6646282
38140.1433842
40096.3116727
44576.7127014
44641.3062704
46723.2938933
51462.1337773
52208.6130836
54418.4519116
59478.4487281
61162.6087342
63592.2763
69167.7980732
72657.6086028
75443.1908193
81849.775758
88618.298391
91933.3402467
99555.3785912
111659.15892
115696.632069
124953.040466
145062.867947
150015.75637
161320.507032
192586.115066
198613.491335
212294.939556
257651.405088
264805.890968
280942.520023
341354.592125
349471.211314
367648.917959
438875.715978
447425.212122
466412.13292
534673.519893
542659.472288
560199.532893
599832.91268
605918.561609
619056.545433
599046.758952
602074.916299
608335.701031
510733.101577
510383.627025
509182.169378
345709.242015
342640.434193
335525.903565
143691.468922
139073.557261
128653.08682
-48073.8927512
-53088.7586596
-64267.0970537
-192496.006725
-196948.986876
-206773.666839
-267371.036348
-270350.162391
-276782.464865
-266800.271027
-267437.931655
-268533.103479
-188053.529577
-184747.754379
-176853.257769
-20054.2670273
-9787.80532198
13952.421691
322780.764954
347692.202295
404670.970401
0.00607699962402
0.252630447102
23.2310598653
3143.0049875
588117.432064
348211.415936
185187.087665
112929.322271
106771.783591
146085.749684
148016.804634
151963.10662
141321.176368
129237.902106
114203.331535
99592.3989175
88989.0565942
83550.8335849
79928.0497369
74663.0815351
67870.0541081
60947.3146463
55119.5174176
50806.0847265
47559.6896841
44719.2090781
41972.1831664
39373.0020483
37161.9176018
35668.6979734
35143.8434639
35699.8894515
37480.0156849
40665.1805158
45350.8777044
51412.396785
58665.2557867
67190.0533296
77710.1931956
91689.5375801
111237.075912
139056.075289
178397.571049
232747.30779
304790.515899
394167.058155
493695.517283
584920.51703
637029.559855
616251.502236
506500.524411
324656.19007
113360.648881
-80371.7188316
-220693.266361
-285552.626581
-269298.088284
-164097.440114
50472.5324203
490870.625546
1.55315761822e-07
2.50061754283e-07
4.40613088068e-07
7.19541828601e-07
6.79688033225e-07
3.84022866892e-07
1.45271287516e-07
3.98127916174e-08
8.39356940525e-09
1.40720071879e-09
1.91219488553e-10
2.13178072627e-11
1.96900755455e-12
1.52006650243e-13
9.89865105042e-15
5.49739095398e-16
2.64335959561e-17
1.12081471677e-18
4.37232233485e-20
3.0002128088e-21
3.04632409991e-06
5.17063914309e-06
9.7367505119e-06
1.75678906851e-05
1.58399674865e-05
7.96705769945e-06
2.62269000518e-06
6.24343856631e-07
1.15447474475e-07
1.71348614937e-08
2.07706866329e-09
2.0859093046e-10
1.75349698742e-11
1.246152481e-12
7.5666245867e-14
3.97692551015e-15
1.84324157982e-16
7.7088854453e-18
3.0280212717e-19
2.17649251568e-20
5.97260517219e-05
6.83486312817e-05
0.000131845981622
0.000250586240466
0.00021018117376
9.40770713599e-05
2.7279154343e-05
5.76872700791e-06
9.58798924257e-07
1.28847740131e-07
1.42662159404e-08
1.31918866386e-09
1.03058457005e-10
6.87073623177e-12
3.9536391039e-13
1.99239035519e-14
8.97946540413e-16
3.73400330339e-17
1.48769986429e-18
1.07122480086e-19
0.00519085140438
0.00442703498063
0.00276974530824
0.00315424358159
0.00219543643615
0.00087373110945
0.000228237776445
4.441646702e-05
6.84293052584e-06
8.59309609141e-07
8.96314418466e-08
7.87152892256e-09
5.87788234717e-10
3.77353101594e-11
2.10572812222e-12
1.03704856106e-13
4.61135951725e-15
1.92025898463e-16
7.96150973494e-18
6.77390336597e-19
0.412341472742
0.172739418346
0.0924979743299
0.0512079187544
0.0254510445631
0.00837769126675
0.00192546313367
0.000337771004199
4.77831074206e-05
5.57532863899e-06
5.47270740177e-07
4.57374327957e-08
3.28401726979e-09
2.04451076226e-10
1.11506672471e-11
5.40818232052e-13
2.38797464216e-14
9.99580768552e-16
4.33693105682e-17
4.66596819939e-18
123.633053634
197.940113539
14.0559833883
1.68044470145
0.405358008354
0.0871269151132
0.0159969349899
0.00244800577722
0.000311242088676
3.36051821084e-05
3.10382836716e-06
2.47697229784e-07
1.7188451107e-08
1.04387111052e-09
5.59945251469e-11
2.68972828612e-12
1.18412653706e-13
4.98387724421e-15
2.23925651335e-16
2.66132110451e-17
50364.0462434
868873.909624
15673.0143937
511.087337528
17.2880999047
1.28972119703
0.132947926189
0.0158721108649
0.00178858041905
0.000178205265511
1.56236868385e-05
1.20365937839e-06
8.16299281649e-08
4.88806918441e-09
2.6372828238e-10
1.24724040414e-11
5.49864920631e-13
2.32490406061e-14
1.06754789046e-15
1.28806405878e-16
16507573.3589
782422760.166
7457479.77266
145712.488509
1380.38363438
24.81556032
1.10221883705
0.0828354542354
0.00802851402403
0.000762258093212
6.54278288258e-05
5.00925333585e-06
3.40032082644e-07
2.04699695982e-08
1.09758529954e-09
5.30381030544e-11
2.35648221967e-12
1.0014987882e-13
4.65953584438e-15
5.38181385205e-16
3466028.36524
48217682.4194
1548957.62995
51826.5161152
1816.89114489
51.5415633186
2.94211256727
0.225201944241
0.02257134332
0.00231336162696
0.000212329439704
1.71280839825e-05
1.21032460492e-06
7.52557842567e-08
4.1451782189e-09
2.047236506e-10
9.2422158831e-12
3.9595950078e-13
1.85970338723e-14
1.98016440081e-15
848701.458084
5730209.56368
302476.507679
15056.5091316
1416.45259716
69.1171805655
5.30473808678
0.466473069814
0.0489078440258
0.00551765233709
0.000561238421236
4.92691694269e-05
3.72296986247e-06
2.4423059723e-07
1.4044709593e-08
7.17120866997e-10
3.31469791628e-11
1.43700042054e-12
6.80877044859e-14
6.55069599421e-15
315444.886029
963676.807663
676674.421473
16162.5759944
1632.23484301
110.829377429
9.77257382119
0.940084063169
0.0996688735514
0.011825631106
0.00131755038945
0.000125916101356
1.02488842868e-05
7.15228730451e-07
4.32714811367e-08
2.30300508762e-09
1.09350716272e-10
4.81161819241e-12
2.30101061239e-13
1.98241180716e-14
420176.033919
13142333.8688
388514755.562
2905946.02327
82346.2952799
1486.74684837
46.681061034
3.0134514737
0.248446869997
0.0262689066541
0.00298882414709
0.000302433247875
2.6235884735e-05
1.93948923786e-06
1.23375128754e-07
6.83589051293e-09
3.34772333735e-10
1.49767853026e-11
7.23272604424e-13
5.56560804211e-14
758811.880229
24514088.3456
297813768.053
6276942.97869
145044.044123
4326.46584061
116.0594729
7.71401182794
0.597774084581
0.0588216696958
0.00655068645124
0.000692066406129
6.31834335984e-05
4.92568907574e-06
3.28808723763e-07
1.89761680372e-08
9.57937038679e-10
4.36320688132e-11
2.12977009797e-12
1.4665888408e-13
596880.740976
9308070.36322
191191305.547
2783835.88968
69307.5418948
4055.9195403
167.636549596
13.5101849707
1.2417247713
0.118225222339
0.0131858796654
0.00145869680296
0.000141362664032
1.16662423663e-05
8.19139594638e-07
4.93096194217e-08
2.57441777072e-09
1.19516568997e-10
5.90776940759e-12
3.66062529522e-13
546304.677456
6508905.79202
194988490.731
2564548.30617
56604.2179931
3161.03123718
234.526006054
21.4844797117
2.22543625828
0.219729389533
0.0243206379184
0.00281193715947
0.000291067058455
2.56386128338e-05
1.90325759519e-06
1.19997580471e-07
6.48539793901e-09
3.08695780096e-10
1.54994752709e-11
8.71241314855e-13
405788.850399
2808877.54858
28259540.3342
244228679.081
1607581.73455
47373.2154503
1124.51268833
47.0528835661
4.26355766396
0.40055064673
0.0427254315612
0.00505646703722
0.000557263994011
5.24237631945e-05
4.13047673099e-06
2.73775387499e-07
1.53841323637e-08
7.53772472374e-10
3.85858509526e-11
1.98682500852e-12
317157.277787
1729610.32707
16068522.4704
193799562.214
3922084.57338
91088.3463915
2713.32801917
88.5420438191
7.66013936378
0.753383924876
0.0754756462427
0.0086859875862
0.00100324655374
0.000100428504407
8.41169478233e-06
5.87734829384e-07
3.44655830392e-08
1.74535427334e-09
9.14360707681e-11
4.35805328633e-12
239069.769437
939557.262398
6722522.87207
133722715.702
2212358.42964
49930.1389162
2485.00744559
110.996693114
11.3507571122
1.20121831159
0.126813198088
0.0143529991443
0.00170401877426
0.000181278166801
1.61563302416e-05
1.19230198803e-06
7.31679162421e-08
3.84552268194e-09
2.06901780862e-10
9.22518270383e-12
183431.264348
566938.268071
3597108.64453
109838115.036
1641801.35897
26969.943604
1478.7915444
121.468663196
14.8667241485
1.89173199613
0.207063117484
0.0231118163472
0.00276371620411
0.000309968605281
2.94124895687e-05
2.29587955928e-06
1.47801746161e-07
8.09483460049e-09
4.48482756971e-10
1.89003911022e-11
154327.360424
458115.226367
3111100.63442
126197112.758
2516811.38203
43996.4238194
1726.80561453
156.242664393
20.3599669858
2.89036029044
0.340578034225
0.0357682596434
0.00434554666728
0.000507727490657
5.10561630675e-05
4.21732681411e-06
2.85331709767e-07
1.63227687315e-08
9.3420724958e-10
3.75762631372e-11
143970.923093
442126.38931
3169330.78254
70095641.9876
215852615.192
2284535.56514
71012.987193
1928.63903979
59.3056995302
5.55050134723
0.610563596077
0.0610890511572
0.00684362870234
0.000809652434745
8.52778487765e-05
7.43791344691e-06
5.29089610431e-07
3.16896475904e-08
1.87626685365e-09
7.26739695862e-11
136020.005836
396959.574806
2536982.76092
24683788.5275
135345941.036
4240136.57993
103279.515013
3716.31154569
105.500548007
9.63750388644
1.07935192273
0.109226145037
0.011028247263
0.00126919572247
0.000138365940798
1.26808533393e-05
9.4738625566e-07
5.94567412578e-08
3.64561207177e-09
1.37058215872e-10
120903.379493
300738.953588
1449919.15753
9947753.17576
92671977.8605
2414137.59348
52521.0536574
2400.79627681
124.752626241
13.3354288143
1.71950969167
0.180574430719
0.0180832085907
0.00196675406468
0.000219052334748
2.10008218695e-05
1.6452959901e-06
1.08226367212e-07
6.87418261643e-09
2.52585908352e-10
103516.419266
221155.023832
851055.179678
5213440.11702
90674203.3869
2059212.28147
37235.7216895
1701.17113015
137.231628469
16.5876968571
2.52617886756
0.291906896792
0.0298796785528
0.00304966096411
0.000339755379602
3.38726544569e-05
2.77925019129e-06
1.91667962288e-07
1.2610346706e-08
4.555912634e-10
88355.3764063
171149.77502
584057.447895
3624963.59294
70530862.4807
131073952.393
926476.820952
29910.3578923
825.675231845
34.3422082504
4.01999331396
0.476947111339
0.0458917058536
0.004772007531
0.000519891062857
5.33235668588e-05
4.57522943736e-06
3.30854680093e-07
2.25532197444e-08
8.05071478743e-10
77215.1871273
144422.048841
481528.310111
3210923.41996
37314281.4314
100196621.346
2386135.10969
66272.8131046
2213.81160122
63.0823127715
6.3700730248
0.801266420154
0.0758892476212
0.00759825370248
0.000789728222702
8.21424011891e-05
7.3517830451e-06
5.57510245349e-07
3.93478812007e-08
1.39452606631e-09
69812.3993657
131833.734573
445473.928587
2926895.87014
18538508.5571
83111962.7932
3918749.90849
79801.7864647
2570.24853822
86.0501063579
8.82917159193
1.20505918407
0.134656822647
0.0122660735966
0.00119542739399
0.000124296644148
1.15524964025e-05
9.18244119961e-07
6.70790999727e-08
2.36870257637e-09
64438.8597759
123151.714476
406674.955168
2402119.02593
11701231.3016
67129270.9475
4420524.98934
63704.7878337
2087.07226176
96.6850339725
10.8119873989
1.68659156196
0.217274956875
0.0199287205327
0.00177773602243
0.000185658576429
1.77989958512e-05
1.48060477827e-06
1.11859813804e-07
3.94703663421e-09
59778.6188216
114534.431575
359445.850076
1865260.721
8559240.61802
68735701.0047
5241504.45409
50275.7132886
1776.20644218
105.707062678
12.3522914099
2.18464072096
0.30254637303
0.0322442465933
0.00270781624796
0.000275593887503
2.69704114936e-05
2.34129553884e-06
1.82651457259e-07
6.45551696069e-09
55612.7736568
106853.294341
319164.606122
1492259.90152
6581340.9215
49974246.5317
98760891.1233
926749.236599
27267.3578893
727.549357139
26.3021157869
3.2344161352
0.448410317894
0.0512380700563
0.00425326082274
0.000410006155506
4.03132316659e-05
3.63616169395e-06
2.92379548208e-07
1.03662390054e-08
52067.4780733
100670.045863
287253.775036
1230276.82338
5335272.02883
29040971.835
72441037.4795
2149385.69766
56139.7735179
1797.84480294
46.8855136321
4.79825074544
0.678602468038
0.0748838847997
0.00682660893312
0.000615560083132
5.95823213738e-05
5.55018849616e-06
4.58944672844e-07
1.6338881273e-08
49447.0727434
96571.3930781
264872.12197
1055634.82605
4581168.89439
15619212.1443
64593246.1722
3857718.27494
78231.308045
2310.43961671
69.5073340114
6.62781775591
0.975537526712
0.104043855416
0.01108650886
0.000935034517204
8.73886726469e-05
8.33312137691e-06
7.06429058161e-07
2.52825456371e-08
48105.4154302
95069.2505456
252159.645171
949029.061253
3968053.56488
10056601.7687
59397105.4899
6842981.4251
102288.096897
2997.19990091
99.3043436763
8.62609446917
1.33595973946
0.168739278345
0.0179280852505
0.0014438238119
0.000128062372141
1.23385526534e-05
1.06711821336e-06
3.83397361975e-08
48163.7262166
95700.5300492
245200.116024
873708.740057
3473147.82062
6857525.92044
50299244.8709
43932262.1347
332159.882276
9322.23430473
247.23852677
13.4326117619
1.85292020633
0.272795267416
0.0284691364904
0.00207920998606
0.000189008276913
1.80942688558e-05
1.58522117126e-06
5.71105480822e-08
49457.0417597
97255.1942969
238676.068954
797666.315316
2937661.68882
3831429.84825
39916697.5889
43804131.6328
699949.380278
19266.6120199
543.702295104
20.9139937088
2.50596781732
0.377963798682
0.0441104331202
0.00309241184518
0.000281737948903
2.6353525411e-05
2.31900081004e-06
8.36694537829e-08
52018.3272863
99880.602553
235319.793967
743386.996022
2569709.58868
2794328.69667
27569555.8735
45975841.6884
1490703.69225
36118.9008612
1030.12739469
29.8272989936
3.27650325588
0.496986672206
0.0654280452629
0.00478690395936
0.000422917989553
3.81148296076e-05
3.33914567436e-06
1.20468432605e-07
55986.3147515
104160.561968
237388.726874
715328.562047
2334343.84143
2520037.48715
18956022.6928
47178117.1637
2926878.21944
59778.0196716
1557.56040327
42.9020553191
4.14889767143
0.646709131409
0.0913549597984
0.00745932691913
0.000637926779485
5.4732246275e-05
4.7267873925e-06
1.70259069927e-07
61399.1800836
110483.399127
245539.708111
708978.828866
2178762.13919
2394340.73874
13751667.1284
47102635.6777
6494015.61694
92494.1931397
2343.99306411
64.0482718221
5.24786142576
0.827155105887
0.117661489628
0.0115045609046
0.00096759946449
7.82222421394e-05
6.57833816633e-06
2.36120421259e-07
68168.868728
119146.648679
259716.481579
718875.064597
2070041.44327
2225295.22166
9964737.05416
44462155.3554
20880317.5819
227478.703146
5608.31695809
133.733538897
7.44967691503
1.04912672431
0.148777649088
0.0174771316374
0.00146710610257
0.000111732225026
9.01578059811e-06
3.21307782475e-07
76288.232891
130579.538258
279753.527607
740296.477537
1985281.33482
1996070.69696
6698859.96511
39703494.8034
23921521.5298
451048.452796
10983.2467778
266.101049564
10.8706982795
1.35299111659
0.194095512555
0.0259378055066
0.00221872776821
0.000159899891704
1.21923925964e-05
4.28983710237e-07
86192.9609575
145646.233298
306187.393102
771421.152597
1913459.20181
1761588.90467
4237346.0402
34033526.7106
26358306.389
826730.178357
19254.0334562
468.834554337
15.1005781856
1.66711503586
0.258159550106
0.0360346099404
0.00321282286247
0.000229116792241
1.63009457296e-05
5.61893446844e-07
98958.7162574
165726.604383
340302.052904
812408.083431
1849858.3681
1523781.60001
2477169.69835
28584013.4094
28900744.728
1496922.40242
32223.0006075
757.95850558
19.899876587
1.99600011787
0.317578080239
0.0483202350169
0.00399684896893
0.000328154182351
2.16071434131e-05
7.22893775283e-07
116266.735103
192667.650417
383860.215164
863648.862878
1789224.63062
1273411.1928
1150642.34303
24586464.5592
30609154.0274
2866185.74885
51404.3544549
1127.71069142
27.7012478638
2.36857741669
0.378981454093
0.0627728385404
0.00504403375254
0.000471704051339
2.85103410452e-05
9.16464524275e-07
140339.294738
228771.258393
438932.424773
925041.090184
1726199.25126
1016912.07484
259409.08352
21703007.0628
31330787.1344
6438162.79704
98653.3258182
2115.93854921
46.1138524439
2.94058509756
0.451821113979
0.0783142174856
0.00644185600607
0.0006759449179
3.75936424086e-05
1.15022037517e-06
173924.057885
276683.07991
507302.810225
994125.737516
1652132.21511
764854.639284
-175328.029739
18852493.7565
31164004.7215
9271085.01521
193734.931247
4149.12439776
86.0016388859
3.92445723597
0.531298255075
0.0946581365433
0.00826737592221
0.000961046672065
4.96492930038e-05
1.43766815087e-06
220177.771329
338958.313867
589134.407248
1063433.49854
1551020.32729
504459.631161
-374373.699463
16514053.1816
30479700.2323
10574234.9093
331514.710509
7257.06445853
148.78169739
5.31890158897
0.627058596036
0.112214036784
0.0105573635122
0.001348176091
6.56944915816e-05
1.80466012981e-06
282177.793922
417108.51352
681365.537181
1120150.33699
1407183.46703
232463.433383
-457250.968693
14761577.2727
29493440.8579
11661689.3337
511076.276344
13339.3146261
261.892299533
7.45292645729
0.746929149528
0.130775966002
0.0133265244208
0.00185719625219
8.71164473193e-05
2.30103109574e-06
361618.933102
509691.631698
775452.718132
1146051.1885
1209181.75104
-46731.0507705
-463055.831447
13554410.5036
28361219.9403
12609508.8266
775029.320077
22253.884012
502.563214372
11.6017850941
0.909735382318
0.151685912256
0.0166404293094
0.00250551829374
0.000115991284247
3.01697824706e-06
456265.965506
609322.454912
855179.62719
1119386.06174
954114.463232
-319111.735036
-396338.387409
12873732.1106
27233654.5641
13278027.4814
1189623.93472
35641.3016734
977.921243757
20.5871789473
1.18979782073
0.177858954949
0.0206553249464
0.00330889377382
0.000154398646297
4.09907700273e-06
556071.362054
699314.160523
896224.710446
1020147.69818
649942.45331
-565834.059056
-251904.366491
12648876.3273
26108076.8235
13581991.0172
1733854.50532
57083.2575378
1869.76350903
40.8929929452
1.74848177438
0.213917184319
0.0256487307003
0.0042874586792
0.000204835764793
5.76576218484e-06
639423.383891
752527.820156
870524.059467
838682.721162
316185.123072
-764833.480397
-17992.9084021
12805612.6813
24965693.5018
13546109.8896
2172014.4636
88978.9982798
3404.49894226
85.6394732717
2.79105480805
0.271398346976
0.0321389877188
0.00547906486792
0.000270078234021
8.3198269246e-06
674081.830785
737214.984167
757784.879984
583886.53121
-17395.9370707
-888070.985514
350375.04121
13303784.3988
23874068.9804
12984220.4493
2446923.16124
129593.697209
5720.1135184
168.691855251
4.7243469017
0.364303244469
0.0411018804189
0.00695748354748
0.000353367496277
1.21544978458e-05
629076.458834
632691.751638
559830.847206
286300.20104
-310173.374072
-876516.530086
1082476.51811
13552257.3942
22926691.0096
12247264.3923
2605633.25175
177154.746129
8938.21712202
310.512579556
8.22859195861
0.513079801185
0.0541705988806
0.00884701622764
0.000458714273601
1.77532223636e-05
495114.169676
445850.687052
305626.754298
-10219.7167786
-519748.531771
-673489.263989
2273424.49446
13736444.9219
21640754.9324
11441241.5442
2679477.5817
228265.208454
13095.4684597
533.12619693
14.6469921078
0.752058533905
0.0739783791816
0.0113272835217
0.000591149826388
2.56862277979e-05
295533.191625
211987.892164
40146.4778511
-263095.088937
-619251.69038
-295461.471265
3617759.60389
14610291.6512
20161243.1133
10534390.5134
2673274.39895
280251.969088
18370.6912598
871.272566356
27.5374133863
1.15070122146
0.104405960837
0.0146112526877
0.000756652989478
3.66176631772e-05
75548.4750543
-20789.3116959
-190342.264975
-435180.977348
-585085.884985
246741.332872
5064147.97177
15682614.8579
18511438.7998
9516258.95526
2588609.32427
327216.901327
25043.8994476
1379.91915601
50.0731203608
1.80509157451
0.152396201137
0.0189460692678
0.000961881205086
5.13365330755e-05
-118533.467068
-208913.710621
-348064.862493
-496374.697509
-394647.347616
967443.960805
6825761.39501
16417150.1234
16677492.6326
8421134.40337
2434454.83936
364050.329759
32501.1339192
2083.08296982
89.1270754907
2.92863832698
0.21891948528
0.0245901024125
0.00121361044776
7.08532450719e-05
-252360.721467
-321145.13563
-405218.97238
-418916.722434
-8266.5861577
1979566.01119
9002711.83114
16518819.3712
14698746.9848
7287255.31804
2223794.93644
385821.444369
40063.9665211
3021.43908407
152.194028617
5.00223775629
0.305611877999
0.031869803812
0.0015210144117
9.66363757686e-05
-303826.558318
-333330.036317
-327876.542436
-134042.128216
755218.687326
3841056.96601
10142992.3709
16119416.2054
12675374.8674
6166522.94408
1976146.41494
390351.470738
46845.5766439
4231.91699252
248.333373295
8.7127653658
0.436983212898
0.0410419104018
0.00189703174272
0.000131057292388
-267549.80123
-240452.683571
-112840.922866
345161.730953
1791793.36588
6178214.79719
12117657.1723
14825363.8507
10596630.2775
5084739.3353
1707857.29882
378234.89398
52153.0806321
5576.36598164
379.847557961
15.0802515716
0.628445201008
0.0521326648386
0.00236093702986
0.000178150428419
-129040.354471
-7369.51406492
323617.649979
1221369.37607
3663938.6778
7812447.17569
13146267.0831
12856142.5321
8544524.22242
4072537.14561
1434138.72765
352142.567803
55465.5351389
6891.22165189
557.851986555
25.7190209059
0.914569066427
0.0651499743748
0.00294466580855
0.000244826073988
143290.620136
426359.711581
1094657.28301
2716870.15744
5893314.3125
10019545.2377
12475273.4114
10488619.6733
6604970.45689
3153001.2325
1166854.67261
315569.317856
56474.4687387
8024.46836894
780.163340646
43.7720166644
1.35615127079
0.0799342689911
0.003694050793
0.000344446137651
703896.154996
1320242.99015
2675769.34294
4688688.71138
7732748.62379
10634432.7628
10456214.7384
8015047.7713
4891883.77156
2375844.34333
935142.634228
280992.802328
57172.2337462
9187.75347222
1060.90627244
69.3393974001
2.02237317511
0.0937747660006
0.00461649771173
0.000501162277658
2.92908916458e-19
2.28460069899e-20
1.78615855519e-18
2.04177542469e-19
9.23586266372e-18
1.14122498377e-18
3.80220135808e-17
4.11473073819e-18
1.28215920205e-16
1.20907908719e-17
3.79131768858e-16
3.20754252292e-17
1.02454200798e-15
7.95474313137e-17
2.58502731776e-15
1.87341061888e-16
6.184049177e-15
4.23918178295e-16
1.42094333954e-14
9.31354203441e-16
3.16515921129e-14
2.00201408683e-15
6.87171575271e-14
4.18660302365e-15
1.45806312738e-13
8.56199348699e-15
3.0282293991e-13
1.72752696881e-14
6.16282684192e-13
3.43227589643e-14
1.23007880106e-12
6.71860414297e-14
2.40983917397e-12
1.29665902968e-13
4.63772390958e-12
2.46939900178e-13
8.77541803562e-12
4.64527800686e-13
1.63365636539e-11
8.6453268206e-13
2.99306673125e-11
1.59037568118e-12
5.3963144872e-11
2.88772926859e-12
9.57066053188e-11
5.17432041771e-12
1.66903475984e-10
9.14666017245e-12
2.86103086427e-10
1.59494373138e-11
4.81873865246e-10
2.74583368514e-11
7.97121857767e-10
4.65659352425e-11
1.29400888746e-09
7.7700783808e-11
2.05950013232e-09
1.27432517291e-10
3.21298619079e-09
2.05363626158e-10
4.918284887e-09
3.25534039826e-10
7.39547887763e-09
5.0823616547e-10
1.0923351717e-08
7.81895566903e-10
1.58364060449e-08
1.1856647249e-09
2.25286978001e-08
1.77462807702e-09
3.15095622072e-08
2.62996227638e-09
4.31302672843e-08
3.8788851436e-09
5.81000017513e-08
5.74216419942e-09
7.71671046486e-08
8.65140618485e-09
1.01472305446e-07
1.35136244184e-08
1.33586573682e-07
2.22693148728e-08
1.78100608229e-07
3.90392588783e-08
2.44573700241e-07
7.25323637324e-08
3.51287114852e-07
1.39704669233e-07
5.32816487422e-07
2.73999583915e-07
8.50422795862e-07
5.36537403517e-07
1.40474655907e-06
1.03563699678e-06
2.35226963421e-06
1.94891871675e-06
3.92138969355e-06
3.55478466234e-06
6.42672272599e-06
6.2670912345e-06
1.02820573009e-05
1.06706833382e-05
1.6017567472e-05
1.75756132165e-05
2.43216516676e-05
2.81137998454e-05
3.61499768057e-05
4.39647732481e-05
5.29648995759e-05
6.78344725832e-05
7.71442550791e-05
0.000104271143813
0.000112872211116
0.000161627495079
0.000167326022451
0.000254697178272
0.000254170203859
0.00041020845443
0.000432558570805
0.000788922942037
)
;

boundaryField
{
    inletfuel
    {
        type            zeroGradient;
    }
    inletair
    {
        type            zeroGradient;
    }
    outlet
    {
        type            zeroGradient;
    }
    axis
    {
        type            empty;
    }
    leftside
    {
        type            zeroGradient;
    }
    burnerwall
    {
        type            zeroGradient;
    }
    front
    {
        type            wedge;
    }
    back
    {
        type            wedge;
    }
}


// ************************************************************************* //
