/*--------------------------------*- C++ -*----------------------------------*\
  =========                 |
  \\      /  F ield         | OpenFOAM: The Open Source CFD Toolbox
   \\    /   O peration     | Website:  https://openfoam.org
    \\  /    A nd           | Version:  dev
     \\/     M anipulation  |
\*---------------------------------------------------------------------------*/
FoamFile
{
    version     2.0;
    format      ascii;
    class       volScalarField;
    location    "0.3";
    object      qr;
}
// * * * * * * * * * * * * * * * * * * * * * * * * * * * * * * * * * * * * * //

dimensions      [1 0 -3 0 0 0 0];

internalField   uniform 0;

boundaryField
{
    inletfuel
    {
        type            calculated;
        value           nonuniform List<scalar> 3(11446.0301143 11446.0301142 11446.0301142);
    }
    inletair
    {
        type            calculated;
        value           nonuniform List<scalar> 
20
(
11417.1849389
11418.6355113
11419.6335362
11420.3220751
11420.7704471
11421.0105872
11421.0499522
11420.8771912
11420.4651002
11419.7721662
11418.7430612
11417.3082052
11415.3824666
11412.8630432
11409.6265049
11405.5248292
11400.3798085
11393.9738097
11386.0299586
11376.1581513
)
;
    }
    outlet
    {
        type            calculated;
        value           nonuniform List<scalar> 
26
(
-1849675.72839
-1855957.39366
-1869790.65323
-1889354.74449
-1933971.9508
-2034457.24446
-2184430.08687
-2377312.56382
-2574515.01472
-2666607.77631
-2489138.5021
-1992893.77428
-1334072.62451
-741753.36951
-340883.917302
-124389.17628
-28325.2968816
6897.40568774
17181.4448125
19132.6308248
19211.318433
19084.8461345
18976.2765768
18904.6073401
18889.3288849
18886.3514937
)
;
    }
    axis
    {
        type            empty;
    }
    leftside
    {
        type            calculated;
        value           nonuniform List<scalar> 
65
(
11391.1061223
11388.8016255
11374.5046561
11382.4720044
11387.9758564
11389.3344428
11393.6444923
11398.6244296
11404.2124519
11410.3893139
11417.1651968
11424.5690751
11432.6417365
11441.4331815
11451.0006004
11461.4078496
11472.7250502
11485.0290827
11498.4039445
11512.9411593
11528.7405205
11545.9107186
11564.5695088
11584.8466318
11606.8827762
11630.8312957
11656.8591643
11685.1477195
11715.8948762
11749.3166667
11785.6485436
11825.1476191
11868.0931985
11914.7887727
11965.5655659
12020.7848465
12080.8410056
12146.1636318
12217.2206844
12294.521298
12378.6230914
12470.1360908
12569.7258732
12678.1227265
12796.1278682
12924.6229204
13064.5779424
13217.0613989
13383.253187
13564.4594386
13762.1310239
13977.8876702
14213.5366575
14471.1010081
14752.8477838
15061.3019301
15399.2555127
15769.695246
16175.5512065
16619.0540032
17100.0665838
17612.0251455
18132.3757139
18602.3890095
18896.9045541
)
;
    }
    burnerwall
    {
        type            calculated;
        value           nonuniform List<scalar> 7(11446.0167497 11445.9972509 11445.9901405 11420.0596539 11428.354213 11434.8906135 11444.9184972);
    }
    front
    {
        type            wedge;
    }
    back
    {
        type            wedge;
    }
}


// ************************************************************************* //
