/*--------------------------------*- C++ -*----------------------------------*\
  =========                 |
  \\      /  F ield         | OpenFOAM: The Open Source CFD Toolbox
   \\    /   O peration     | Website:  https://openfoam.org
    \\  /    A nd           | Version:  dev
     \\/     M anipulation  |
\*---------------------------------------------------------------------------*/
FoamFile
{
    version     2.0;
    format      ascii;
    class       volScalarField;
    location    "0.3";
    object      T;
}
// * * * * * * * * * * * * * * * * * * * * * * * * * * * * * * * * * * * * * //

dimensions      [0 0 0 1 0 0 0];

internalField   nonuniform List<scalar> 
1629
(
299.997967155
299.997215424
300.001091029
299.994379111
299.995367449
300.002682957
299.992112788
299.994277766
300.0032416
299.994648565
300.002537221
300.038592596
300.002180594
300.017931727
300.063927796
300.012254962
300.036383157
300.080288613
300.029942526
300.071248175
300.177454617
300.126695288
300.441384108
302.260128105
300.492711911
301.559471611
306.382197608
301.460420331
303.784921642
312.152982348
303.445524563
307.329863843
319.082538652
306.84474168
312.327587267
327.069772967
311.968771483
318.918753305
336.298514213
319.038295553
327.270085578
347.004278424
328.205724002
337.547593063
359.405875579
339.543909409
349.828740316
373.506820383
353.045945014
364.095267083
389.205315852
368.650655735
380.280928143
406.415535351
386.271584882
398.308560587
425.095620536
405.806481438
418.092670993
445.21445262
427.128485798
439.517061945
466.684261178
450.099323633
462.450153215
489.385835038
474.615754999
486.809566318
513.285417009
500.604173999
512.548205765
538.396772464
527.976015159
539.592222515
564.673491597
556.62400935
567.840058702
592.018361173
586.46692071
597.224454968
620.391142549
617.453739568
627.713952791
649.80174276
649.530203698
659.271716204
680.248053003
682.602972078
691.812961533
711.658688443
716.554427317
725.2241632
743.92386034
751.295986311
759.427607905
776.986905793
786.762897408
794.37102557
810.821719545
822.873467343
829.978968838
845.364572035
859.532146665
866.156493737
880.519793763
896.668393697
902.834440475
916.220799233
934.236305936
939.969386488
952.430362226
972.185667128
977.513042513
989.105071132
1010.44617921
1015.39802347
1026.18806261
1048.96517766
1053.57411539
1063.62746987
1087.70799003
1092.00164181
1101.37621778
1126.64824759
1130.65396267
1139.4074222
1165.77965903
1169.52359889
1177.71124355
1205.10615269
1208.6121291
1216.28432857
1244.63893186
1247.92771633
1255.12843305
1284.40175313
1287.49128132
1294.25852544
1324.4329105
1327.3385999
1333.70509353
1364.77796321
1367.51242158
1373.50488048
1405.46923035
1408.04135043
1413.67845905
1446.48511741
1448.89905109
1454.18928082
1487.6867801
1489.9418307
1494.8833748
1528.75673209
1530.84960491
1535.43551469
1569.21033184
1571.14066627
1575.37102428
1608.55616737
1610.33361785
1614.23076608
1646.56538062
1648.21342927
1651.82980579
1683.49089901
1685.04461339
1688.45746855
1720.12291392
1721.62270361
1724.9203896
1757.71677237
1759.20212679
1762.47056052
1797.92064859
1799.42715215
1802.74351687
1842.54269274
1844.09580903
1847.51480592
1893.44055639
1895.0527195
1898.60011142
1952.39255055
1954.05762157
1957.71768948
2019.97391415
2021.654991
2025.34225378
299.977433617
299.978838584
300.006376958
300.438122265
310.631998269
322.166653776
333.532666213
343.985759141
354.630220559
366.427366893
379.642633395
394.447511381
410.487411252
427.508354358
445.456161355
464.39901562
484.421698451
505.481351251
527.465842707
550.409048637
574.407470103
599.442404113
625.410387971
652.302095746
680.177554037
709.075313332
738.934476019
769.641690973
801.162985198
833.503295988
866.611124527
900.386843894
934.766087207
969.719938639
1005.21762021
1041.21177857
1077.64624148
1114.466795
1151.64628196
1189.17179431
1227.03352388
1265.22478443
1303.75271557
1342.6407715
1381.91751699
1421.59248844
1461.61523787
1501.81823957
1541.87042107
1581.30843911
1619.70511454
1656.91716389
1693.26725433
1729.57607096
1767.09113257
1807.43527502
1852.35152466
1903.6144644
1962.88147124
2030.52286307
300.00443132
300.004457361
300.004512397
300.004537258
300.004547464
300.00455111
300.004551733
300.004550999
300.004549802
300.004548572
300.004547467
300.004546496
300.004545608
300.004544737
300.004543814
300.004542832
300.004541409
300.004540989
300.004527296
300.004421594
300.007209273
300.007320764
300.007459994
300.007534965
300.007567577
300.007577404
300.007576535
300.007571493
300.007565664
300.007560521
300.007556534
300.007553686
300.007551784
300.007550639
300.007550069
300.007550253
300.00754948
300.007553608
300.007521975
300.007357855
300.008127146
300.009065917
300.009367379
300.00950903
300.009557425
300.009562874
300.009553558
300.009540624
300.009528498
300.009518725
300.009511609
300.009506882
300.009504121
300.009503001
300.009503226
300.009505302
300.009505984
300.009514256
300.009468186
300.00921592
299.993185508
300.010297455
300.011458875
300.011671259
300.011708273
300.011678658
300.011644401
300.011616776
300.011595421
300.011579601
300.011568646
300.011561731
300.011558079
300.011557188
300.011558648
300.01156341
300.011566966
300.011580916
300.01152678
300.01134329
299.982070594
300.011595644
300.0140444
300.014487598
300.014318666
300.01401646
300.013859505
300.013791486
300.013754571
300.013730743
300.013715156
300.013705761
300.013701253
300.013700924
300.01370428
300.013712928
300.013721544
300.013745957
300.013694301
300.013705022
300.009396055
300.023086256
300.024844712
300.025574962
300.021220916
300.017643702
300.016395636
300.016091093
300.016008119
300.015971754
300.015950599
300.01593849
300.015933242
300.01593393
300.015940045
300.015954135
300.015970641
300.016012544
300.015980239
300.016204644
302.093436785
304.521154607
300.800532687
300.26515787
300.091190849
300.033809758
300.020928655
300.018719215
300.018379107
300.01830754
300.018278581
300.0182636
300.018257863
300.018260149
300.018270042
300.018291338
300.01831877
300.018384278
300.018383979
300.018822439
380.157568008
1388.88999052
449.86190301
316.328026632
301.465057047
300.165366592
300.037568627
300.022702235
300.020968153
300.020749978
300.020703492
300.020685108
300.020679248
300.020683828
300.020698609
300.0207289
300.020770078
300.020863308
300.020903606
300.021558093
409.822546488
1180.51449861
458.517920122
321.327855879
302.628007869
300.357875976
300.069769048
300.029393081
300.023992602
300.023327276
300.023231458
300.023207196
300.023201546
300.023209194
300.023230006
300.023270975
300.023328368
300.023451927
300.023539031
300.024412915
425.06986927
916.917889347
465.012114197
321.731569772
303.465877873
300.585769609
300.120009749
300.040527947
300.027848363
300.026100706
300.025872747
300.025834409
300.025828853
300.025840356
300.025868327
300.025921493
300.025997248
300.026152834
300.026291646
300.027389958
431.378721907
753.611711614
480.367543406
329.969173709
305.873802434
301.078115188
300.220095854
300.061629368
300.033509652
300.029217119
300.028648356
300.028572486
300.028565454
300.028581497
300.028617712
300.028684421
300.028780391
300.028969107
300.0291638
300.030493305
441.187748064
767.631448507
1333.33282218
438.915519739
321.485847527
303.164113053
300.520348673
300.112188516
300.043763025
300.03306024
300.031607574
300.031430073
300.031415872
300.031436788
300.031482252
300.031563673
300.03168144
300.031903927
300.032158189
300.033727211
455.932815659
794.737020162
2022.90545222
528.166776143
338.632993222
306.336547916
301.067442292
300.211326589
300.062984136
300.03839142
300.034858116
300.034422838
300.034385366
300.034410504
300.034466079
300.03456321
300.034704097
300.034960644
300.035277824
300.037096381
472.639296084
800.261010736
2119.43836085
561.651732489
350.272539434
309.698724508
301.818267574
300.37008259
300.096193899
300.046414968
300.038604481
300.037580529
300.037480747
300.037507028
300.037573288
300.037686954
300.037852056
300.038142726
300.038526011
300.040606022
490.807872258
806.195000406
1928.46977584
612.301399562
370.503417741
315.53431863
303.08277865
300.634796863
300.152769122
300.059179614
300.043220066
300.040959854
300.040712395
300.040731331
300.040808251
300.040939094
300.041129312
300.04145407
300.041906666
300.044262029
508.449660813
798.579262321
1581.98463772
1320.44890954
458.998758866
330.457563968
305.673445538
301.113278612
300.250383811
300.080193376
300.04936323
300.044665524
300.044097214
300.044089177
300.044175503
300.044323947
300.04454002
300.044898843
300.045424114
300.048070649
525.538318811
792.475440033
1424.52247053
1950.81610144
532.368177518
345.288049986
308.838663688
301.781111255
300.39803876
300.113266767
300.057991754
300.048874068
300.047663621
300.047587861
300.047679896
300.047846054
300.048088589
300.048481545
300.049083119
300.052038504
542.455625426
789.291127504
1319.09782545
2204.53397102
569.109782081
355.999495535
311.917230742
302.576964122
300.598610092
300.162204591
300.070385856
300.053863635
300.051458897
300.05123716
300.051326532
300.051510009
300.0517795
300.052206813
300.052888656
300.056172383
559.659572189
789.311457326
1242.16889349
2144.21646191
625.814743919
369.140618912
316.015682579
303.682070561
300.885652901
300.235141523
300.088667319
300.060095746
300.055563733
300.05505173
300.055121304
300.055320787
300.055617618
300.056079722
300.056846212
300.060479569
577.554780796
793.111745422
1194.4657771
2009.60457115
708.798752047
398.596380537
324.716634978
305.765821382
301.370360936
300.352353789
300.117011859
300.068402382
300.060121043
300.059054941
300.059071131
300.059283566
300.059607981
300.060105554
300.060961546
300.064967611
596.166313566
799.475340305
1160.87288162
1859.80672172
1508.1806278
514.352599059
346.459046821
310.042943487
302.244013362
300.54793056
300.162417081
300.080203149
300.065381076
300.063286254
300.063185007
300.063403935
300.063755915
300.064289905
300.06524079
300.069644433
615.327748352
806.986717866
1133.01162361
1714.75888501
2026.65136486
603.912617831
367.402278988
315.160347064
303.442442717
300.835180131
300.231645386
300.09740919
300.071738248
300.067811269
300.06747545
300.067687924
300.068066889
300.068638505
300.069690263
300.074518154
635.168184962
815.887111867
1111.37314978
1604.67801604
2203.4005805
664.748371849
385.290695902
320.723950941
304.954370372
301.229616132
300.332462866
300.12255373
300.079785578
300.072736719
300.071961433
300.072142684
300.072546885
300.073157546
300.074316791
300.079597372
655.932084365
826.788583581
1097.44842366
1530.33082814
2150.78712881
749.918135703
416.208595114
330.231620387
307.391610535
301.831980689
300.484221102
300.160045126
300.090483059
300.078237646
300.076672407
300.076776795
300.077202227
300.077853455
300.079127479
300.084890961
677.63814521
839.449588453
1089.46330111
1477.39477349
2075.17135291
1347.45745981
508.938646788
349.834862627
311.727662017
302.80826159
300.718369463
300.216796467
300.105339619
300.084597085
300.081655207
300.081601273
300.082039773
300.082733002
300.084129813
300.090408038
700.138909019
853.200192298
1084.60935306
1433.18967368
1970.97189931
1841.78087556
600.078544839
371.564614787
317.111506136
304.114607211
301.045969011
300.29890982
300.126228361
300.092228361
300.08698251
300.086630895
300.087066955
300.087803188
300.089331549
300.096158168
723.45935216
868.091115016
1082.84742517
1398.62810078
1871.73176275
2162.71919839
683.499683965
392.510057924
322.872065513
305.666374884
301.467252172
300.41140829
300.155308502
300.101699761
300.092764243
300.091886697
300.092292334
300.093071531
300.094740973
300.102151196
747.738839992
884.433657279
1084.59316221
1373.36871306
1795.76214731
2250.62608571
779.2017097
416.898962604
330.100323597
307.695578884
302.029750163
300.566230659
300.195999209
300.113866353
300.099169724
300.09739939
300.097725853
300.09854593
300.100366744
300.108397284
773.088881823
902.427483981
1089.96360014
1356.82207606
1741.59387007
2211.77954396
901.618520392
458.147771813
342.434454263
310.957382832
302.873472304
300.791114427
300.254554029
300.130129894
300.106469808
300.103215686
300.103379656
300.104234758
300.106217969
300.114906948
799.460605746
921.864367728
1098.13495507
1346.23360662
1698.79134997
2152.0651474
1467.13722264
555.151375712
364.539372922
316.255732538
304.159415901
301.12129279
300.339615058
300.152551494
300.115081609
300.109407511
300.10926942
300.110147127
300.112304332
300.1216911
826.71359069
942.353765987
1107.97744924
1338.5488469
1660.048396
2079.35044658
1878.53620574
652.488284172
389.238741909
322.766125711
305.841065358
301.568545913
300.458336452
300.183533775
300.125580787
300.11608212
300.115416492
300.116293117
300.118636118
300.128761172
854.841937054
963.929965916
1119.56552408
1334.16227016
1628.56409968
2009.37513735
2151.478358
754.00289091
416.252386692
330.445019463
307.945499619
302.15017845
300.618676979
300.22597272
300.138740084
300.123395253
300.121850685
300.122684262
300.125224316
300.136129203
883.904333795
986.771821774
1133.27772788
1333.90564896
1606.08573533
1958.48558493
2251.24010394
883.420278292
454.961291116
341.584811866
310.925369511
302.949750059
300.838509985
300.284459782
300.155689564
300.131576894
300.128614695
300.129334317
300.132080971
300.143808387
913.871271025
1010.83983353
1148.95669494
1337.22424777
1590.57524296
1918.41613038
2261.36195075
1216.77823293
523.330550135
358.786047197
315.296080302
304.074434939
301.142122435
300.365311139
300.178017559
300.140960727
300.135769637
300.136259776
300.139218975
300.151812768
944.630039263
1035.92108386
1166.06892199
1342.72899346
1578.18401244
1879.11367822
2241.93248733
1546.99127031
604.706775581
379.9601877
320.859946911
305.532619333
301.541818242
300.474137122
300.207562992
300.151990613
300.143401208
300.143481145
300.146652406
300.160157824
976.11569934
1061.95124336
1184.47831086
1350.19745964
1569.11789045
1846.26481324
2191.84408222
1843.70250596
698.598536377
404.614064958
327.497141759
307.319429848
302.044826936
300.615869104
300.246345379
300.16522823
300.151626514
300.151024404
300.154396646
300.168860597
1008.32054387
1088.97611173
1204.3086278
1359.93478881
1564.1879089
1821.40221861
2144.77579173
2068.44592498
807.919429707
434.840131088
335.818271873
309.575158222
302.682008828
300.799140079
300.297136898
300.181431855
300.16060819
300.158923799
300.162469339
300.177940821
1041.2507892
1117.03896065
1225.67836916
1372.17857528
1563.74962216
1804.62101944
2109.31337333
2194.79169329
950.76809847
476.594169664
347.353357753
312.63359339
303.520689161
301.039331803
300.364094167
300.201676086
300.170575562
300.167224399
300.170890021
300.187420303
1074.86955096
1146.09569712
1248.53109508
1386.77392063
1567.21876505
1793.87268207
2081.06702604
2255.58535104
1186.6029164
537.571300097
363.497473557
316.811864863
304.631616031
301.353908619
300.452287262
300.227359399
300.181842335
300.175986996
300.179681757
300.197324546
1109.09508865
1176.04258379
1272.68442019
1403.29676201
1573.49626753
1786.48897637
2054.54908913
2281.04513031
1429.25712111
613.025779621
383.910601862
322.148876048
306.043460481
301.754283697
300.566355547
300.260053921
300.19480696
300.185292328
300.188872612
300.207683704
1143.87149527
1206.81919037
1298.03451214
1421.49514165
1581.99280729
1781.60237723
2030.40473486
2281.11628226
1650.65813412
703.00122869
409.036134571
328.770122409
307.789878272
302.250951457
300.710798756
300.301497822
300.209961632
300.195247714
300.198499181
300.218534682
1179.16998875
1238.39700756
1324.52805871
1441.23586046
1592.45940693
1779.14450199
2009.99843151
2267.97501096
1834.82494404
808.705806426
440.416202177
337.125291068
309.971991334
302.865722649
300.891992917
300.353886747
300.22793744
300.20599495
300.208607546
300.229919675
1214.97093476
1270.74486358
1352.10462655
1462.40464147
1604.75458076
1779.20229305
1994.11488257
2253.27451213
1972.26689593
930.543083677
480.620543312
348.046140702
312.780605035
303.637363416
301.119456157
300.420150857
300.249567259
300.217724904
300.219257526
300.24188605
1251.25108337
1303.8144025
1380.67940014
1484.87576915
1618.76292117
1781.87252403
1983.20514666
2239.62327851
2062.20805527
1081.44094276
533.156267625
362.548545083
316.455241338
304.614617782
301.404667642
300.503824327
300.275899379
300.23068837
300.230525608
300.254483423
1287.9859834
1337.54903565
1410.15562964
1508.51124961
1634.33542348
1787.05195147
1976.78012985
2225.24053416
2124.48096143
1242.62064519
598.509433664
381.293870388
321.197889778
305.841820902
301.758331296
300.608551982
300.308145882
300.245201444
300.242508987
300.267758189
1325.16616898
1371.91193102
1440.46413596
1533.20617382
1651.33856928
1794.54759274
1974.19180096
2212.37285519
2168.70610786
1390.90141992
675.660615974
404.964286851
327.238615664
307.367364921
302.19101119
300.737990629
300.347652891
300.261645777
300.255323908
300.281740539
1362.79989347
1406.88632217
1471.55667923
1558.87599334
1669.66529503
1804.21945179
1975.08137546
2202.70222714
2199.49536665
1517.74799257
762.847894502
434.63376406
334.962655182
309.27012198
302.717599161
300.896432753
300.395983285
300.280483652
300.269104885
300.296422922
1400.89771196
1442.4489934
1503.36552811
1585.40906575
1689.19962285
1815.96139555
1979.26227573
2196.86725304
2219.79248609
1620.41398478
856.860040832
471.585562863
344.959722042
311.67811174
303.361053717
301.089434996
300.455025101
300.302277021
300.283998573
300.311725837
1439.44482945
1478.53759142
1535.77182339
1612.65159511
1709.82742649
1829.71187197
1986.62053529
2194.93357112
2231.54391942
1697.24878295
955.666823915
517.026237372
357.99492369
314.773070085
304.153320077
301.323876985
300.527002203
300.327693352
300.30015083
300.32744877
1478.36063301
1515.01636494
1568.58928637
1640.42085374
1731.46098153
1845.44723156
1997.03804621
2196.63121737
2237.03395674
1755.51684407
1052.10764196
570.995268434
374.883330422
318.787970638
305.135213199
301.607709844
300.614389888
300.357489166
300.31768394
300.343206521
1517.44943348
1551.64825943
1601.57067796
1668.54455819
1754.0747
1863.19491156
2010.39271112
2201.47582632
2237.92172929
1799.2733589
1139.78754429
631.915029418
396.425135912
324.029130202
306.361093319
301.950427957
300.719898133
300.392490184
300.336661102
300.358345697
1556.37068146
1588.10056338
1634.45438423
1696.92675919
1777.75862734
1883.09718965
2026.68208042
2208.89347022
2234.8293486
1828.6386729
1213.15958214
697.719145062
423.411574808
330.923088539
307.910057761
302.364643393
300.846606413
300.433582388
300.357038021
300.371842887
1594.69039329
1624.03006938
1667.07130744
1725.64321871
1802.7943025
1905.48418675
2045.89886075
2215.86471198
2227.86885641
1845.52124732
1270.41276776
765.644124224
456.390485694
340.033545037
309.898497709
302.86797383
300.998117402
300.481691063
300.378596199
300.382208376
1632.05507618
1659.25323099
1699.48135206
1755.01451754
1829.66803413
1930.81716559
2068.05905914
2221.2006105
2215.00700931
1852.08989068
1315.1355799
830.41631296
495.112232524
352.051079873
312.501568662
303.486271089
301.178826479
300.537759162
300.400859339
300.387353627
1668.41341026
1693.90344871
1732.0323154
1785.54749392
1858.87595915
1959.31209981
2092.9579094
2227.78685689
2197.54422655
1850.12948849
1349.34919588
887.862065274
538.901618788
367.812047692
315.994406075
304.259678601
301.394439279
300.602712523
300.422977529
300.384481856
1704.15898862
1728.4983083
1765.34569909
1817.86167142
1890.82922787
1990.87741818
2119.8370051
2234.36412477
2175.88716568
1840.57090392
1373.61856404
935.050624541
586.929544364
388.132724392
320.771972162
305.246765377
301.65204439
300.677312796
300.443556265
300.369938849
1740.13990011
1763.91579869
1800.27570734
1852.6670103
1925.90410642
2025.33334824
2147.84857301
2237.55600728
2149.18630515
1823.97180478
1388.71792654
973.845788511
635.280400557
413.223248425
327.328952304
306.528771748
301.960045226
300.761894423
300.4604402
300.339163456
1777.59066011
1801.34203521
1837.89475986
1890.81520199
1964.58029148
2062.56995213
2175.58495899
2234.12411578
2116.2421267
1800.56195843
1395.35465024
1005.16704231
679.943357023
443.031133628
336.275697952
308.225026588
302.32929044
300.856143275
300.470383913
300.286433824
1818.10420906
1842.29605658
1879.59223259
1933.46384837
2007.51044159
2101.69488532
2195.96559087
2221.01119193
2076.6809876
1771.02262403
1394.41564807
1029.21164269
717.940776642
477.197871978
348.269119801
310.508911159
302.774099481
300.958704859
300.468732819
300.205183008
1863.34792967
1888.26291054
1926.54057441
1981.26982284
2054.60021292
2142.22982468
2212.44021067
2197.27990338
2030.56927723
1736.10801819
1386.86524106
1046.46779903
750.156479836
513.020631469
363.682646711
313.621343823
303.314112935
301.066646555
300.449023095
300.088157622
1915.00110992
1940.68566491
1979.74929679
2034.3821436
2104.0012299
2176.43829916
2216.67993164
2161.22744648
1977.97590162
1696.53579868
1373.66499179
1057.6494464
777.322659358
546.997000892
383.416991715
317.974971143
303.983264474
301.175192155
300.402875259
299.928464244
1974.57733076
2000.71595786
2039.69712882
2092.0297815
2152.58741482
2202.3102812
2203.58609686
2112.38130073
1919.57082287
1653.30819771
1356.05899029
1063.88810252
800.183263452
577.854210644
407.376239238
324.177741307
304.838934002
301.276444197
300.318342629
299.715818139
2042.19123361
2067.76008551
2104.23800946
2148.51872112
2191.10259826
2210.10038166
2172.7076171
2056.64350848
1863.43984744
1615.36023149
1342.76032528
1072.40960828
823.599250879
608.110578786
434.803940513
332.940520831
305.870141792
301.348329819
300.180331725
299.434266038
300.039775175
300.061633345
300.036079458
300.05188012
300.034906317
300.048204199
300.035649392
300.049684351
300.037660817
300.051986133
300.040447052
300.054756402
300.043740536
300.057883945
300.047403933
300.061316532
300.051360162
300.065023619
300.055561983
300.068987015
300.059979943
300.073196818
300.064596675
300.077648751
300.069402678
300.082341797
300.074393574
300.087276715
300.079568157
300.092454949
300.084927399
300.097877985
300.090473474
300.103546696
300.096209269
300.109461007
300.102138038
300.115619329
300.108265552
300.122015909
300.114595729
300.128647203
300.121130369
300.135512696
300.127871885
300.142610133
300.134823194
300.149936252
300.141988056
300.157486389
300.149376645
300.165251342
300.156996163
300.173231046
300.164856406
300.18143006
300.172969903
300.189858201
300.181353172
300.198532256
300.190025773
300.207474563
300.199011297
300.216713599
300.208336843
300.226282594
300.218032939
300.236218459
300.228131283
300.246558408
300.238665238
300.257338571
300.249669177
300.268591884
300.261175229
300.280343212
300.273207188
300.292603273
300.285771982
300.305355837
300.298848885
300.318540683
300.31236844
300.332023446
300.326180497
300.345555899
300.339999975
300.358709798
300.353338139
300.370794327
300.365428764
300.380775119
300.375139708
300.387179215
300.380893701
300.388029347
300.380585107
300.380777371
300.371595091
300.362379031
300.350704197
300.329220306
300.314154433
300.277252789
300.257600515
300.201973758
300.176138525
300.098430154
300.063894448
299.960742616
299.915534891
299.784350386
299.72607844
299.565431127
299.49228546
299.302660601
299.211779593
298.999044942
298.828547969
298.565393494
)
;

boundaryField
{
    inletfuel
    {
        type            fixedValue;
        value           uniform 300;
    }
    inletair
    {
        type            fixedValue;
        value           uniform 300;
    }
    outlet
    {
        type            zeroGradient;
    }
    axis
    {
        type            empty;
    }
    leftside
    {
        type            fixedValue;
        value           uniform 300;
    }
    burnerwall
    {
        type            zeroGradient;
    }
    front
    {
        type            wedge;
    }
    back
    {
        type            wedge;
    }
}


// ************************************************************************* //
