/*--------------------------------*- C++ -*----------------------------------*\
  =========                 |
  \\      /  F ield         | OpenFOAM: The Open Source CFD Toolbox
   \\    /   O peration     | Website:  https://openfoam.org
    \\  /    A nd           | Version:  dev
     \\/     M anipulation  |
\*---------------------------------------------------------------------------*/
FoamFile
{
    version     2.0;
    format      ascii;
    class       volVectorField;
    location    "0.3";
    object      U;
}
// * * * * * * * * * * * * * * * * * * * * * * * * * * * * * * * * * * * * * //

dimensions      [0 1 -1 0 0 0 0];

internalField   nonuniform List<vector> 
1629
(
(-0.178700708603 7.16720711576e-16 25.1443633054)
(-1.00085452526 3.88281610782e-16 25.3393037422)
(4.06418847578 8.73725833288e-17 24.5111036726)
(-0.0621553086665 8.84271321845e-16 25.4956919682)
(-0.997836616945 4.7445197108e-16 25.5721388546)
(2.74730823008 3.50223700014e-17 24.4946442509)
(0.0355883718872 -9.00076140804e-16 25.7384902851)
(-0.946053516193 -3.16854563089e-15 25.7241202591)
(2.15087131884 -1.22669546318e-14 24.4933208591)
(0.120919373409 -2.999830654e-13 25.7074495775)
(-0.635775048761 -4.3957709197e-13 25.4760006324)
(1.54478437991 -3.1642619447e-12 22.8146449698)
(0.0944121561151 -5.83509581193e-11 25.4539699616)
(-0.495850032366 -2.85880868058e-11 24.906393087)
(0.925384180128 -7.16316337711e-12 21.1271241476)
(0.0819901379383 -7.97470244217e-11 25.2569152474)
(-0.296961052336 -3.01284848266e-11 24.3131399595)
(0.583898037516 -2.27452003169e-13 19.7060933282)
(0.0595274497378 -4.89594616722e-11 24.9853213192)
(-0.152476812035 -2.6027337146e-11 23.574591833)
(0.361439814265 3.77053120766e-12 18.5520316086)
(0.040427286035 -2.82685552564e-11 24.5565864552)
(-0.0533499595606 -1.9349267324e-11 22.7147092215)
(0.246104837035 9.40044437537e-12 17.7309295477)
(0.0368733446662 -1.53483120454e-11 23.9166470546)
(0.0286969506758 -1.44997273299e-11 21.7908885442)
(0.221090193384 -7.24642149286e-13 17.1644318336)
(0.039468993702 1.98421253308e-11 23.0456977042)
(0.0805103950817 -6.55283780322e-12 20.8345286883)
(0.212293911065 -6.21837593926e-12 16.7004241111)
(0.0457892892764 8.36579159524e-12 22.0277486179)
(0.112404050222 -1.59264984806e-12 19.9169476033)
(0.208259657739 3.24641817807e-12 16.3059960272)
(0.0536857741189 6.84017251774e-12 20.961377945)
(0.134738258574 1.57003829362e-11 19.0762208184)
(0.21201184016 1.40429047277e-11 15.9720739753)
(0.0609675403231 5.04367850073e-12 19.900960532)
(0.152194632063 1.18505495473e-11 18.2945862522)
(0.22388487426 8.00795566806e-12 15.6583167527)
(0.0652375322251 -5.06636423645e-12 18.8788583008)
(0.162426992895 -2.51603869155e-11 17.5492391673)
(0.233806391454 -4.02675128154e-12 15.3288951634)
(0.0662743877227 3.98578735189e-11 17.932813518)
(0.165507546648 -8.5429859347e-12 16.8496861846)
(0.237771190129 -2.58572755359e-11 14.991195019)
(0.065434398357 6.00373224619e-12 17.0856511799)
(0.164533560965 -6.76663701049e-12 16.2092844083)
(0.2381512478 -1.60160056687e-11 14.6601186004)
(0.0637332562454 -7.35183381077e-13 16.3303826253)
(0.161499348591 -6.46166880948e-12 15.6208389731)
(0.236372247454 -1.16474960714e-11 14.3300778751)
(0.0612446988429 -1.54657431932e-12 15.6497103261)
(0.156191967103 -4.90158772154e-12 15.0715163679)
(0.230970928009 -6.5657612633e-12 13.992059741)
(0.0578604403888 -1.28464544226e-12 15.0362530057)
(0.148255168546 -3.55492497015e-12 14.5607550767)
(0.220936918805 -4.65046365752e-12 13.6528878897)
(0.0538709313736 -9.21675385055e-13 14.4910354224)
(0.138474378022 -2.47654496165e-12 14.0965732681)
(0.20744587238 -3.19303687291e-12 13.3292722646)
(0.0500678232712 -4.90435985225e-13 14.0088687383)
(0.129029803876 -1.28479446802e-12 13.679266875)
(0.194233680321 -1.58237147426e-12 13.0284412238)
(0.0468642589292 1.18289709012e-11 13.5691007707)
(0.121094711107 3.81813127993e-11 13.2915314939)
(0.183348596688 1.01674413059e-11 12.7367179161)
(0.0436721540175 6.40277630412e-12 13.154475644)
(0.113034759036 1.63065836512e-11 12.9185670731)
(0.171858277875 8.76734806036e-12 12.4421400219)
(0.0401423005249 -2.20390850318e-11 12.769494441)
(0.10398142706 4.47043251255e-12 12.5676131529)
(0.15840420617 3.37158740702e-11 12.156335774)
(0.0367708662301 -1.58540078922e-12 12.4213813958)
(0.0953369734543 5.08307196925e-12 12.2480794243)
(0.145521575947 1.38663671704e-11 11.8924440235)
(0.0340200044911 2.09780201137e-11 12.0987485643)
(0.0883345097813 -4.57845584989e-11 11.9494922481)
(0.135294267087 -4.49086697947e-11 11.6412682492)
(0.0315703948986 -5.14555696336e-12 11.7862824096)
(0.0820559201928 -2.2685455934e-11 11.6570078052)
(0.126052103319 -2.77702691774e-11 11.3885142954)
(0.0290204368442 -9.22951260588e-12 11.4849599804)
(0.0754813015943 -2.73184337269e-11 11.3724466167)
(0.116180658836 -4.82054806939e-11 11.1375351008)
(0.0263773022856 -4.51731490135e-12 11.2050386869)
(0.0686453389913 -1.16732349152e-11 11.1069696049)
(0.105789515248 -1.09018157919e-11 10.9012378844)
(0.0240143731981 -1.53815271634e-11 10.9501245391)
(0.0625406596284 -4.27650987861e-11 10.8647148748)
(0.0965410046981 -1.03217723592e-11 10.6847689161)
(0.0221345682987 -3.34702464027e-12 10.709300001)
(0.0577123676337 -7.14928129858e-12 10.6348386327)
(0.089339505343 4.73383565668e-12 10.4773328281)
(0.020411906663 4.09612212201e-12 10.4726333195)
(0.0532610407718 1.29915279895e-11 10.4074661045)
(0.0826336570233 2.96314485508e-11 10.2690985367)
(0.0185889528667 7.43036753529e-12 10.2462962895)
(0.0485262893739 2.17487085487e-11 10.1891270197)
(0.075386315813 3.97467993157e-11 10.0673165968)
(0.0168432911304 -5.24756025587e-12 10.0388132292)
(0.0439964020923 -1.6500414131e-11 9.98868264185)
(0.0684434985786 -3.83174901704e-11 9.88152984371)
(0.0153989746401 -8.79589069962e-11 9.8459450563)
(0.0402590795869 -4.3812878408e-11 9.80197261252)
(0.0627569805426 -2.0413730901e-11 9.70770989916)
(0.0141569095672 -7.77710053374e-11 9.65930542224)
(0.0370357249607 1.18203642296e-12 9.62062159819)
(0.0578386078866 -6.96225232798e-11 9.53747667405)
(0.0129289479532 -9.3972086928e-11 9.47936286403)
(0.0338396818573 -6.3248920828e-11 9.44522898083)
(0.052919301553 -6.52592451076e-11 9.37168881775)
(0.011688753634 -1.47836714303e-11 9.31214776788)
(0.0306069765779 -3.40453722634e-11 9.28199618993)
(0.04791473467 -4.74885463958e-11 9.21689620679)
(0.0105481841214 -7.53567698469e-12 9.16085122448)
(0.0276333835481 -2.07442913154e-11 9.13422149402)
(0.0433086271385 -3.15399087859e-11 9.07661339673)
(0.00958510277414 -4.53554435552e-12 9.02234408428)
(0.0251240406479 -1.26992449197e-11 8.99880604837)
(0.0394290516258 -1.98878083142e-11 8.94779623801)
(0.00874455395728 2.96505156503e-11 8.8924114331)
(0.0229303787533 8.60892420387e-11 8.87155437548)
(0.0360292583545 3.68961063829e-11 8.82628347211)
(0.00794820834932 5.99441687535e-12 8.77126450741)
(0.0208495532448 1.51524699006e-11 8.75273211117)
(0.0327919872017 1.28709318773e-11 8.71245127328)
(0.00718204971829 4.1038996753e-11 8.66148419735)
(0.0188459829165 -1.50685290694e-11 8.64498321682)
(0.0296652479915 -6.7784447806e-11 8.60907339841)
(0.00647570661839 -5.19893920433e-12 8.56467926908)
(0.0169974960689 -1.81966842313e-11 8.54996316323)
(0.0267752608667 -3.1833662597e-11 8.51790167754)
(0.0058560975415 -5.27434217836e-12 8.48015384835)
(0.0153756474451 -1.49825424892e-11 8.46700384345)
(0.0242385827805 -2.42488194281e-11 8.43832494125)
(0.00531558013524 -5.23683930527e-11 8.40606426302)
(0.0139600876314 -1.448270293e-10 8.39428052517)
(0.0220224690006 -1.69716451492e-10 8.36855720702)
(0.00482724101324 -2.01203133252e-11 8.34164955854)
(0.0126802164332 -5.54321178298e-11 8.33105384327)
(0.0200148916076 -8.04859567158e-11 8.30790419042)
(0.00437466613421 2.14198581412e-12 8.28735297394)
(0.0114933887732 8.39381882799e-12 8.27779044376)
(0.0181494402395 -7.16915021615e-11 8.25688185807)
(0.00395457915846 -1.35920399365e-11 8.24365068984)
(0.0103910196634 -3.94776744048e-11 8.23498629364)
(0.0164131569241 -7.06288478258e-11 8.21602802248)
(0.00356401855047 -1.62618800326e-11 8.21040495421)
(0.00936546281415 -4.63663310179e-11 8.20251864611)
(0.0147947080805 -7.75235094945e-11 8.18525178224)
(0.00319301924516 -1.41883010401e-11 8.1868848847)
(0.0083907155038 -4.03212060168e-11 8.17966873506)
(0.0132538447697 -6.66242006668e-11 8.16386014208)
(0.00282845092648 7.01364694602e-11 8.1721261785)
(0.00743255468525 2.02603021173e-10 8.16548380361)
(0.0117378931056 1.72201722672e-10 8.15092495123)
(0.00246398009897 4.49994509004e-11 8.16509406752)
(0.00647478776747 1.29432090859e-10 8.15894083724)
(0.0102233912305 4.48401500246e-11 8.14544825384)
(0.00210575995055 4.41141122506e-12 8.16490471308)
(0.00553379621959 1.11224087969e-11 8.15916790226)
(0.00873771879686 9.43238986099e-12 8.14658350298)
(0.00177514480539 2.50439510057e-13 8.17118772688)
(0.00466570579549 5.84587565796e-13 8.16580634827)
(0.00736998317712 2.50997097962e-13 8.15399718513)
(0.00150209038119 -1.164086515e-12 8.18362763906)
(0.00394936325203 -3.35071008292e-12 8.17855035018)
(0.00624474712211 -5.79808015684e-12 8.16740423457)
(0.00131338198854 -1.68161518948e-12 8.20158435726)
(0.00345482273751 -4.77073153243e-12 8.19676577758)
(0.00547151429367 -7.98156206731e-12 8.18618346174)
(0.00122146420396 -6.36412383376e-11 8.22359680306)
(0.00321500985174 -7.18196665936e-12 8.21899260254)
(0.00510207126323 3.66207680588e-11 8.20887712803)
(0.00122086644058 -1.51994448999e-11 8.24809405799)
(0.00321506186319 -4.19606771507e-11 8.24365709159)
(0.00511129788101 -7.03955887008e-11 8.23390526175)
(0.00130052691205 2.19626798966e-11 8.27363179324)
(0.00342594091327 -1.08718914559e-10 8.26931171427)
(0.00545324925596 -1.1381743649e-10 8.25981318101)
(0.00146962190438 -6.40971091311e-11 8.29819776634)
(0.00387198354852 -1.56915545441e-11 8.29393688204)
(0.00616592036267 2.19930979112e-11 8.28456569009)
(0.00162060244311 1.63149289461e-11 8.31402118637)
(0.00427057357106 4.47944187275e-11 8.30972645072)
(0.00679922156136 -1.02781271043e-11 8.30028375915)
(0.000838435398363 1.32122797553e-12 8.33369285759)
(0.00220950819283 1.21671802414e-10 8.32932468225)
(0.00351233432427 1.32395617654e-10 8.31972730869)
(-1.01976401282 -3.54254884951e-11 7.19442510916)
(-0.454120516894 -2.90814320828e-11 8.51557339873)
(-0.137857273659 -2.82693413865e-11 10.2095319063)
(0.00823942244627 -2.632202714e-11 11.3258808233)
(0.100924438803 -2.30890598201e-11 12.0534964831)
(0.185689433997 -2.23232613582e-11 12.5533280331)
(0.218805595379 -2.08173062055e-11 12.8095566433)
(0.226672282427 -1.56490031696e-11 12.9400357484)
(0.236104832817 -8.86161517062e-12 13.0379056994)
(0.257094678688 -6.78786415237e-12 13.1032359827)
(0.275021561871 -8.54879415062e-12 13.1086847065)
(0.284121238386 -1.04914399704e-11 13.0690123743)
(0.288022322838 -7.92486664735e-12 13.0030938085)
(0.28925187754 -1.09153317019e-11 12.9044667047)
(0.285446703158 -2.40944194027e-12 12.7638745757)
(0.274974934971 -3.97846565048e-12 12.5923577815)
(0.259352758106 -2.83279645649e-12 12.4128889452)
(0.244072150011 -5.81209002852e-13 12.2370589205)
(0.2321048989 6.6947220482e-14 12.0518372889)
(0.218788914221 3.23682679269e-12 11.8461625759)
(0.202217698786 1.4160060575e-11 11.6359364458)
(0.186287101358 9.86537368773e-12 11.4381397432)
(0.174043615385 -2.47446804028e-11 11.2442292854)
(0.162889083545 -2.42875942994e-11 11.0399200989)
(0.150598944713 -2.60791701924e-11 10.8302862313)
(0.137388121638 8.94747186088e-12 10.6303686559)
(0.125673161553 1.41034754485e-11 10.4464498315)
(0.116761505067 2.00760080432e-11 10.2675722985)
(0.108352358873 5.4329286665e-11 10.0838190316)
(0.0990415143418 6.08637855376e-11 9.90336956455)
(0.0900912447825 1.16028726733e-11 9.73664395905)
(0.0828352911912 -5.13983181457e-13 9.57971682454)
(0.0765415876295 -3.80290934348e-11 9.42413555548)
(0.0701693575801 -7.2665643007e-11 9.2710771567)
(0.0636298941832 -5.68349819541e-11 9.12754175438)
(0.0576017984608 -3.86064220247e-11 8.99731209782)
(0.0525377779475 -2.47192634913e-11 8.87739247052)
(0.0480873134668 1.71361052866e-11 8.76364910329)
(0.043826747052 8.66825824366e-12 8.65659806369)
(0.0396929327525 -5.28384042642e-11 8.5591824512)
(0.0358619203847 -3.84639040612e-11 8.47327836032)
(0.0324973957322 -3.17507644973e-11 8.39834551912)
(0.0295543196472 -1.44993201576e-10 8.33264529476)
(0.0268809350587 -9.47029177531e-11 8.27554156031)
(0.0243893836598 -1.34345707194e-10 8.22761573438)
(0.0220633171168 -9.88803337237e-11 8.18946143114)
(0.0198889076728 -1.07231922734e-10 8.16103016074)
(0.0178137706081 -9.05255792039e-11 8.14166334358)
(0.0157700093535 7.93800737201e-11 8.13046599504)
(0.013730445954 -2.05427070638e-11 8.12647411332)
(0.0117347940532 6.29487218163e-12 8.12887556379)
(0.00990357509933 -5.69935327632e-13 8.13737097776)
(0.00840387405198 -8.44048326304e-12 8.15170347447)
(0.00738055330019 -1.1146741735e-11 8.17126928026)
(0.0069025726347 7.29981341054e-11 8.19461328433)
(0.00693289132195 -1.01941564602e-10 8.2201463019)
(0.00740968176471 -1.32487815911e-10 8.24640358389)
(0.00838300617802 -1.8139430476e-11 8.27132801638)
(0.00924192924309 1.46028687537e-11 8.28693879845)
(0.00476385018648 1.12412770576e-10 8.30616075564)
(-0.0861318705341 -4.82621098682e-12 1.98517704499)
(0.0159474194717 -4.04086911972e-11 2.01246169557)
(-0.0119595139995 -5.31938175644e-12 2.00083556179)
(-0.0135712781045 -8.38563634398e-13 1.99505026781)
(-0.0105266408362 -1.24716470748e-13 1.99187289985)
(-0.00657046816206 -1.8959465203e-14 1.99050808013)
(-0.00284344735175 -1.56506111217e-14 1.99027715179)
(0.000289683451334 -8.35599663293e-14 1.99059535322)
(0.00269457276109 -4.5630370961e-13 1.99106854835)
(0.00442842708068 -6.54587210227e-14 1.99149822512)
(0.00564550555728 -3.81397518461e-14 1.99180657503)
(0.00653533336287 -2.84700052777e-13 1.99197899957)
(0.0072939755968 -2.40336772764e-13 1.99202487145)
(0.00811909666047 -1.88977032764e-14 1.99195482394)
(0.00921657960566 -1.00243173456e-15 1.99177900388)
(0.0108515509707 -7.75608543438e-17 1.99146582587)
(0.013186190925 -3.39091666937e-16 1.99119454943)
(0.0173244174911 5.67354688446e-15 1.98992761367)
(0.0124785900548 1.51708190403e-13 1.99216260799)
(0.0346487279871 3.37143205897e-15 1.99774403936)
(-0.0790414887958 -1.39341171407e-11 2.08946522101)
(-0.0321819015278 -7.64994298714e-11 2.06045468566)
(-0.0528193373932 -1.06996039371e-11 2.0164732296)
(-0.0381495547543 -1.83333009594e-12 1.99774167697)
(-0.0240990865113 -2.95787970105e-13 1.98974410626)
(-0.0129006600259 -5.7407428126e-14 1.98760632578)
(-0.0045606970864 -1.23242892949e-13 1.98834098143)
(0.0013693491187 -1.11687686463e-12 1.99011057907)
(0.00538482490276 -1.345528023e-11 1.99193873311)
(0.00803275621159 -8.46660245758e-13 1.99342383524)
(0.00978065571326 -4.46635661979e-13 1.99444749042)
(0.0110224681654 -7.85263402193e-12 1.99502263554)
(0.012096393408 -6.17283082875e-12 1.99520042921)
(0.0133227918116 -2.26625198851e-13 1.99501813446)
(0.0150126720882 -7.70868881054e-15 1.99451234528)
(0.0176934911598 -9.40498790899e-16 1.99355446376)
(0.0211895025974 -1.28318633569e-14 1.99279801715)
(0.0292235129698 6.78791893641e-14 1.98984304803)
(0.0260280245752 4.22681054131e-12 1.99523354168)
(0.0394429646936 6.39399643071e-14 2.01758312009)
(-0.201088812826 -2.41897808292e-11 2.26144090233)
(-0.151974258725 -6.55809927306e-11 2.07567363607)
(-0.113866579208 -1.24582370609e-11 2.01060882897)
(-0.0649490873963 -2.45047169691e-12 1.98658977014)
(-0.0348175808146 -4.38807792246e-13 1.97905235478)
(-0.015845904759 -1.08692633179e-13 1.97936871695)
(-0.00391995533857 -2.79558533363e-13 1.98268037445)
(0.00357550328315 -1.72379025428e-12 1.98656055429)
(0.00820451102983 -1.25436618069e-11 1.98994194571)
(0.0110576394097 -1.29797654971e-12 1.99249640117)
(0.0128484737373 -7.0406371718e-13 1.99419755347)
(0.0140975980214 -7.53961524892e-12 1.99514122148)
(0.0152120089157 -6.1892401684e-12 1.99543778402)
(0.0165752521948 -3.6064529836e-13 1.99515172003)
(0.0185236110942 -1.35253878777e-14 1.99434545461)
(0.0218714073868 -7.39814794998e-15 1.99277854125)
(0.0259895982794 -2.25495195383e-13 1.99150089391)
(0.0371046229475 1.02172657421e-13 1.98742423305)
(0.0384771521387 4.24080051686e-12 1.99410466235)
(0.051186955557 1.08272061105e-13 2.03335565753)
(-0.958625239322 -4.25443730601e-11 2.46073446624)
(-0.469019803292 -5.95663742058e-11 1.97630717628)
(-0.183061261337 -1.23144494936e-11 1.955578292)
(-0.0894678203248 -2.82659786015e-12 1.95138668373)
(-0.0414646795316 -6.10208606542e-13 1.95637300169)
(-0.0149303508839 -2.87064579587e-13 1.96501979916)
(-0.000411288059675 -1.19458434258e-12 1.97355051055)
(0.00771415522499 -2.87520096106e-12 1.98064384472)
(0.0122907472862 -1.17186828733e-11 1.98601274273)
(0.0148935550069 -1.72636038164e-12 1.98978320164)
(0.0164229524205 -1.01885310146e-12 1.99219330611)
(0.0174746146272 -7.78185513975e-12 1.993491957)
(0.0184852265446 -6.22371139303e-12 1.99387390113)
(0.019882284958 -5.0151646271e-13 1.99343319373)
(0.0219891689519 -5.1508197811e-15 1.99225347734)
(0.0259846891829 -4.98918715936e-14 1.98995266985)
(0.030718798292 -3.03107977696e-12 1.98780907727)
(0.0453917445911 1.12257532646e-13 1.98226655584)
(0.0549630592441 6.08822443201e-12 1.98844794176)
(0.134115024735 1.00764635206e-13 2.01536830255)
(-0.347420255357 -2.61151351377e-11 2.47994668345)
(-0.303042270092 -7.80845033108e-11 1.78697249183)
(-0.144897389863 -1.22207123329e-11 1.85205561408)
(-0.0723730556812 -3.04562695437e-12 1.89434015339)
(-0.0281105760976 -8.64584152586e-13 1.9246552717)
(-0.00402226515128 -1.2903800527e-12 1.94710517694)
(0.00821997605213 -1.2937474467e-11 1.96302725129)
(0.0145729248229 -1.24651203605e-11 1.97405554532)
(0.0178828158379 -1.13699883535e-11 1.98160060853)
(0.019579905305 -2.1794046149e-12 1.98658176953)
(0.0204763105136 -1.85296163319e-12 1.98964231836)
(0.021103715228 -1.5077914881e-11 1.99122977398)
(0.0218557600625 -6.81708070598e-12 1.99163337176)
(0.0231719765862 -6.58938555052e-13 1.99096984502)
(0.0253139393177 2.5211204545e-13 1.98932782544)
(0.0298612768597 -8.10700850034e-14 1.98614280867)
(0.0350661733251 -2.85771355696e-12 1.98269736332)
(0.0533814456375 1.19749033784e-13 1.97440084133)
(0.0650477425199 5.99811200078e-12 1.97640209825)
(0.177957148144 -3.19248250208e-12 1.95682523199)
(-0.121767238081 -6.60422125418e-11 3.09619559849)
(-0.181222306599 -1.02571228752e-10 1.64279614713)
(-0.0391919624903 -1.29396608513e-11 1.73721574307)
(-0.000391220880644 -3.26993335864e-12 1.84301445825)
(0.0148115135197 -1.17512042612e-12 1.89830410466)
(0.0205465000586 -2.27200862544e-12 1.93208623966)
(0.0231584208686 -1.29651954811e-11 1.95404798783)
(0.0245367452775 -2.08157034788e-11 1.96834413298)
(0.0250759435186 -1.14884564621e-11 1.97767665695)
(0.0251217863715 -2.83293712043e-12 1.98364528511)
(0.0249860515125 -6.76467564504e-12 1.98722127985)
(0.0249512664285 -1.46047794073e-11 1.98900517866)
(0.0252795081406 -1.29119344514e-11 1.98935439979)
(0.0263832966414 -8.94557327949e-13 1.98838723671)
(0.0284034113706 4.19832445338e-12 1.98617178449)
(0.0333164210395 -3.14688310367e-14 1.98191546978)
(0.0385076466492 -2.77585074659e-12 1.97672993675)
(0.0595980618096 1.42950344738e-13 1.96425233305)
(0.0672934808622 7.68962803054e-12 1.95818756477)
(0.190537156278 -2.91469140437e-12 1.90020472912)
(-0.074909827383 -7.15306093366e-11 3.91696728455)
(-0.0643977687893 -1.38387005446e-10 1.75480495707)
(0.164649250138 -2.39538608948e-11 1.76067281532)
(0.129314283623 -5.08052946e-12 1.85346213944)
(0.0772554179212 -1.6868463177e-12 1.89980558824)
(0.0533534497887 -3.88333728559e-12 1.92925204458)
(0.0422107932923 -2.30796426325e-11 1.95039576979)
(0.0366310858986 -2.05279063404e-11 1.96503466345)
(0.0334528271812 -1.16301556123e-11 1.97488274954)
(0.0313414958985 -3.56685820657e-12 1.98126950898)
(0.029866458447 -7.57170629931e-12 1.98508728485)
(0.028961718069 -1.42502260971e-11 1.98691890128)
(0.0287036836032 -1.26570798157e-11 1.98711579322)
(0.0294492901036 -1.12953927166e-12 1.98576017099)
(0.0311564280489 3.94226397343e-12 1.98287066287)
(0.0361742843004 1.84824084117e-14 1.97739713646)
(0.040652730099 -2.68863333572e-12 1.97021713232)
(0.0631846186036 1.64594048815e-13 1.95318376835)
(0.0639060935433 7.40224699566e-12 1.93814677003)
(0.180757198456 -2.63900493055e-12 1.85897623075)
(-0.0179667241702 -6.58552158821e-11 5.08000208788)
(0.0539322489218 -8.00420422542e-11 2.62297779697)
(0.307336744067 -2.91640572039e-11 2.08296583208)
(0.190814496605 -7.38744400187e-12 1.95607771469)
(0.103776297766 -2.30004012709e-12 1.93187532404)
(0.0741837013689 -4.943220151e-12 1.9399699604)
(0.0581974923394 -2.07688136346e-11 1.95306091985)
(0.0481838713311 -1.98887251241e-11 1.96461328427)
(0.0419815090832 -1.18634986536e-11 1.97346323287)
(0.0378271303773 -5.30153372472e-12 1.97956866256)
(0.0349371149508 -1.70717079105e-11 1.98327877861)
(0.033039948254 -1.42683312247e-11 1.9849680951)
(0.0320608360852 -1.23508934301e-11 1.98489791426)
(0.0323036068708 -1.38229287551e-12 1.98307494288)
(0.0334910125692 3.72069007494e-12 1.97944706726)
(0.0383286380179 6.62035352441e-14 1.97271197992)
(0.041437189067 -2.5849611204e-12 1.96355068112)
(0.0641334470282 1.86656715455e-13 1.94266755099)
(0.0572668336005 7.14967756221e-12 1.91998342117)
(0.159926775066 -2.3782190657e-12 1.83228855816)
(0.0665492498823 -5.83555770271e-11 6.20886870391)
(-0.174541899892 -6.27860396115e-11 3.45596615901)
(0.0417435523745 2.30545151603e-11 2.22874078675)
(0.0839799856383 -5.8591115932e-12 1.99859216581)
(0.0769748822399 -2.61412366749e-12 1.9512137509)
(0.0763300873956 -5.03313723848e-12 1.949196021)
(0.0667017708765 -9.31717147832e-12 1.9566095213)
(0.057174575348 -1.8536529087e-11 1.96535048714)
(0.0497799579468 -1.25809268103e-11 1.97294582553)
(0.0441646515888 -1.74450638363e-11 1.97846091131)
(0.039989467606 -2.55148796996e-11 1.98182081056)
(0.0370702948823 -1.46168359921e-11 1.9832012592)
(0.0352769400005 -1.21226207506e-11 1.98275716416)
(0.0348902780321 -1.92506683385e-12 1.98040647077)
(0.0353634431003 3.22478574642e-12 1.97602282616)
(0.0397617260547 9.91798393134e-14 1.96809388635)
(0.041040770785 -2.46947342388e-12 1.95717011054)
(0.0629289691515 2.10330194726e-13 1.93360847714)
(0.0491534348915 6.91197195545e-12 1.90539306729)
(0.136511396061 -2.14670573348e-12 1.8162936466)
(0.0983273457374 -4.37471574965e-11 6.98064630059)
(-0.268820171386 4.19092460471e-11 3.33929683204)
(-0.142976365024 2.31560215412e-11 2.04659958674)
(0.0388028226141 -5.39554254326e-12 1.92160017618)
(0.0723632197976 -2.85717423779e-12 1.92876554402)
(0.0826107612436 -5.76717269783e-12 1.9437072762)
(0.0749021957325 -1.95839468157e-11 1.95536853327)
(0.0655653138339 -1.80855047447e-11 1.96505432537)
(0.057203256004 -1.25123280126e-11 1.97258162314)
(0.0502937128076 -1.74051548691e-11 1.97774633707)
(0.0449043160405 -2.45460370693e-11 1.98071279464)
(0.0409561417904 -1.49284490251e-11 1.98168828072)
(0.0382863724774 -1.23963966882e-11 1.98079414087)
(0.0371709091421 -7.28430429606e-12 1.97788355633)
(0.036770720916 -1.43671869781e-12 1.97277083572)
(0.0405238934495 2.05591574599e-14 1.96379932819)
(0.0397371770805 -2.34861306816e-12 1.95143008714)
(0.0601924061927 2.35488225849e-13 1.92633159007)
(0.0407088888163 6.67799222538e-12 1.89459036369)
(0.114413660741 -1.95165727482e-12 1.80734303388)
(0.119952638968 -3.38794032837e-11 7.61319967694)
(-0.246310401057 9.63450966291e-12 3.49028408636)
(-0.144686836725 -4.20956349661e-11 1.9476706254)
(0.132738241584 -7.34247651191e-12 1.86903247577)
(0.139904428597 -3.32888088041e-12 1.9107130494)
(0.115102812467 -6.19265057404e-12 1.93730172528)
(0.0919848258194 -1.82629987743e-11 1.9533816667)
(0.0767727518219 -1.67872727084e-11 1.96472923105)
(0.0652778203162 3.34624295977e-13 1.97254350225)
(0.0564215653627 -1.63783674853e-11 1.97745056193)
(0.0496585240985 -2.35990513137e-11 1.9799928752)
(0.0446343264513 -1.50819599371e-11 1.98049898751)
(0.0410410540743 -1.83402132428e-11 1.97910669736)
(0.0391271474592 -7.59795333904e-12 1.9756324112)
(0.0377424366303 -5.86044253761e-12 1.96985058762)
(0.0407053592178 1.19900813064e-14 1.96003208142)
(0.0378015533822 -2.23727035217e-12 1.9465553421)
(0.0564871435607 2.5564090577e-13 1.92083813193)
(0.0326007834371 6.26200791399e-12 1.88712141741)
(0.0948722676228 -1.79704476248e-12 1.80284489098)
(0.165021710101 -3.17884492684e-11 8.24309109216)
(-0.172967898725 -6.43045636355e-11 4.19549794915)
(-0.0961163383774 -4.1171916432e-11 2.42689232379)
(0.239141953861 -1.04725321963e-11 2.02638917111)
(0.206044511939 -4.1537342949e-12 1.96185837191)
(0.144352073534 -6.83996137957e-12 1.95327071805)
(0.109135262862 -2.66184405811e-11 1.95955145822)
(0.0884974965441 -1.66980048263e-11 1.96765306058)
(0.0734146512349 -2.82679453278e-12 1.97390948445)
(0.0623523549497 -1.56781796565e-11 1.97790343974)
(0.0541469877908 -2.24669540235e-11 1.97977620187)
(0.0480356253168 -8.7940128525e-12 1.97970719514)
(0.0435042385414 -1.75581809361e-11 1.97777707563)
(0.0407577163633 -7.85983972758e-12 1.97375618399)
(0.0383299596985 -5.51559058151e-12 1.96738591031)
(0.0404156358208 3.27686596858e-12 1.9569284157)
(0.0354779872325 -2.34508463642e-12 1.94266369084)
(0.0522626880427 2.11109219852e-13 1.91700549215)
(0.0252075671359 1.8216353765e-12 1.88239776245)
(0.0781561208437 -1.83276982367e-12 1.80118810896)
(0.236396993856 -2.77786684094e-11 8.82022939419)
(-0.00877544548345 -4.30923785208e-11 5.12335748134)
(-0.111355392681 6.71459314189e-11 3.27931044798)
(0.162949061011 -4.99705229297e-12 2.2225567009)
(0.168347969213 -4.17572883764e-12 2.02186364628)
(0.134610798068 -7.14170655227e-12 1.97614261297)
(0.112935438639 -2.448460461e-11 1.9704272402)
(0.0950376422337 -1.73284805293e-11 1.97318076725)
(0.0794672688245 -1.7951251465e-11 1.97667847044)
(0.0673428975267 -1.61845651801e-11 1.97917459923)
(0.0580993429488 -2.21864186764e-11 1.98011176073)
(0.0510542976211 -1.72134415822e-11 1.97935877003)
(0.0456418474985 -1.72041155634e-11 1.97686492802)
(0.042073851352 -8.14838346465e-12 1.97233243053)
(0.0385973530828 -5.75398130981e-12 1.96546590759)
(0.0397705730411 3.07491604308e-12 1.95456947811)
(0.0329736147726 -7.99013245092e-12 1.93979910767)
(0.0478612172768 4.15280686317e-14 1.91467194365)
(0.0187321459476 1.82105608275e-12 1.87988661133)
(0.0641820758066 -5.48149350941e-12 1.80133383606)
(0.28818212735 -2.11631656084e-11 9.2921988334)
(0.102915957654 -9.60728586453e-12 5.88003568974)
(-0.134663094346 2.64374421281e-10 3.68009936017)
(0.0501920113671 8.83658766381e-12 2.21708817386)
(0.12306273339 -3.35180560889e-12 2.01013217353)
(0.123449205075 -7.56129912026e-12 1.97750146472)
(0.113560467155 -3.31924550033e-11 1.97508099662)
(0.0982907840573 -1.80569653279e-11 1.9770595881)
(0.083462911635 -1.81961943465e-11 1.97933987493)
(0.0711788358723 -1.7108561687e-11 1.98077174015)
(0.0613592509139 -3.04380353206e-11 1.98085053456)
(0.0536152859696 -1.78776644219e-11 1.97942655431)
(0.0474371794219 -1.71491958129e-11 1.97639478575)
(0.0431002222949 -8.68183984305e-12 1.97141117003)
(0.038615722842 -1.39468185376e-11 1.96414853568)
(0.0388836317435 8.78817493148e-12 1.95299402281)
(0.0304578102571 -7.22929951913e-12 1.93795379979)
(0.0435330021445 -1.07980184632e-13 1.91365976561)
(0.0132523221792 1.76053191838e-12 1.87912862365)
(0.0526783383307 -5.22918224593e-12 1.80255068844)
(0.314463095529 1.41760312251e-11 9.68199608649)
(0.150803403577 2.23251841381e-11 6.49687246871)
(-0.214491312214 2.58054795862e-10 3.90677229802)
(-0.0423472459284 7.76490826903e-11 2.22478466859)
(0.154372693815 3.22281253374e-12 2.00874341227)
(0.15408571367 -6.91116182823e-12 1.98162047837)
(0.126948248081 -2.88313629024e-11 1.97868317127)
(0.104240152385 -3.53127191567e-12 1.97987050041)
(0.0875288926052 -2.94197455774e-11 1.98159849757)
(0.0744760150132 -1.88448203128e-11 1.98238202267)
(0.0640704172588 -2.95868039152e-11 1.98181460726)
(0.0557534436835 -1.87491898485e-11 1.97984081711)
(0.048917846659 -2.2663172417e-11 1.97635964576)
(0.0438811614914 -9.30779885093e-12 1.97101566756)
(0.038460729332 -1.71919926148e-11 1.96346346995)
(0.0378598934931 7.73589418087e-12 1.95220713705)
(0.0280616858642 -6.61230521224e-12 1.93708315717)
(0.0394487863252 -2.41323923379e-13 1.91378622421)
(0.00875498957562 1.69244661571e-12 1.87973220597)
(0.0432872332003 -1.4928862587e-12 1.80433270791)
(0.328634644239 1.16193925418e-11 10.0135802661)
(0.187160589161 3.81382247368e-11 7.04965226208)
(-0.239311778891 1.92876511712e-10 4.34017702785)
(-0.138153832793 1.508225717e-10 2.5734914444)
(0.193092003157 1.64532981155e-11 2.12848178978)
(0.17938936329 -5.19238767815e-12 2.02397964739)
(0.134307092835 -4.71243196547e-11 1.99315538579)
(0.107924975051 -8.71806264075e-12 1.98571953339)
(0.0906764143409 -2.6737220668e-11 1.98463163734)
(0.0771498649128 -2.09939757605e-11 1.9841885139)
(0.066311426547 -4.57632643449e-11 1.98295848628)
(0.0575491216353 -2.05370231445e-11 1.98055164713)
(0.0501509909826 -2.1807463936e-11 1.97674248693)
(0.0444814518111 -5.04836425028e-12 1.97115068374)
(0.038210585296 -1.60577890431e-11 1.96341763942)
(0.0367923763154 6.63149513433e-12 1.9521886637)
(0.0258797256211 -6.08311294676e-12 1.93711936269)
(0.0357135809464 -3.60480573701e-13 1.91487705962)
(0.0051710508114 1.60912511162e-12 1.88137859637)
(0.0356501645127 -1.39550023926e-12 1.80636277409)
(0.339909663698 -1.61552018081e-11 10.2737204797)
(0.244444681609 4.61623431576e-11 7.5203936224)
(-0.0938932554213 2.27132917125e-10 4.9279882325)
(-0.195587588876 2.38859650897e-10 3.13311547534)
(0.129533700989 2.88913450338e-11 2.25404304062)
(0.141060021938 -3.21925772867e-12 2.06186405289)
(0.116212810254 -4.15170271497e-11 2.0060802864)
(0.102639118833 -1.24214929373e-11 1.99102934949)
(0.0903473605961 -2.53436081704e-11 1.98723932206)
(0.0784591983712 -2.25480391095e-11 1.98575921279)
(0.0680057810973 -4.24202354747e-11 1.9841204099)
(0.0590805838624 -2.21780493646e-11 1.98149844251)