/*--------------------------------*- C++ -*----------------------------------*\
| =========                 |                                                 |
| \\      /  F ield         | OpenFOAM: The Open Source CFD Toolbox           |
|  \\    /   O peration     | Version:  2.2.x                                 |
|   \\  /    A nd           | Web:      www.OpenFOAM.org                      |
|    \\/     M anipulation  |                                                 |
\*---------------------------------------------------------------------------*/
FoamFile
{
    version     2.0;
    format      ascii;
    class       volScalarField;
    location    "0";
    object      epsilon;
}
// * * * * * * * * * * * * * * * * * * * * * * * * * * * * * * * * * * * * * //

dimensions      [0 2 -3 0 0 0 0];

internalField   nonuniform List<scalar> 
1629
(
28960.2165048
110382.079101
839090.351492
45690.4209846
165913.277854
1336362.65659
56433.2706651
205480.587462
1590810.68856
60989.3870171
206287.060648
1191770.02058
64008.6149201
208046.772712
926687.207592
67146.0512763
212162.286098
730973.334
72126.8637143
220542.788268
597528.513237
80283.0945997
231445.447104
503518.577238
92289.1690204
241609.270124
434014.651089
107544.011657
247189.220564
379545.39432
123647.299284
245211.621006
334091.684087
136849.551555
234700.169545
293762.32024
143697.938353
216754.890993
256211.021518
142695.67829
193823.535345
220617.337827
134612.62981
168614.288287
187084.553013
121589.483563
143359.618553
156114.873755
106027.31021
119583.061003
128260.955469
89906.3870239
98167.3357456
103907.095002
74578.5675683
79527.1235212
83203.3248799
60813.9719212
63739.042076
66025.4375419
48945.3237802
50657.4591565
52045.9284761
39013.6563831
40009.6832452
40838.8411281
30887.810026
31466.2471642
31957.8232905
24350.4408542
24688.1934037
24982.0486697
19154.8458981
19355.038298
19535.5606944
15061.4546118
15182.994661
15298.6666957
11855.2280333
11931.2787121
12009.0142307
9352.22511913
9401.38926475
9455.97550725
7400.20271347
7433.08311827
7472.92352833
5876.54628342
5899.28229536
5929.28775105
4685.10301805
4701.28738767
4724.37840075
3751.20523647
3763.0044676
3781.02318817
3016.93618417
3025.69796463
3039.86548954
2437.54614808
2444.14053002
2455.31762026
1978.49551165
1983.51964958
1992.37317055
1613.19957337
1617.07750038
1624.13648077
1321.32149556
1324.35449779
1330.02828415
1087.2356215
1089.63890283
1094.24043387
898.816185995
900.743947128
904.509356277
746.594853886
748.157581621
751.262859836
623.15039087
624.427949515
627.004547705
522.654800116
523.706091699
525.853928301
440.527178825
441.396899568
443.194052576
373.162870395
373.88609738
375.395638191
317.717102616
318.322298116
319.596822814
271.934434667
272.44526586
273.529567731
234.017377309
234.453796546
235.386375655
202.524777906
202.903789956
203.717959325
176.293880304
176.630082756
177.354786328
154.382281306
154.688176052
155.348433614
136.022822861
136.309014435
136.926187832
120.588915566
120.864359902
121.456587934
107.567708543
107.839894378
108.422431543
96.5402078017
96.8152405344
97.4006011366
87.1736741909
87.4568373514
88.0559647368
79.2094788834
79.5055858586
80.1285947683
72.4391880827
72.7517651786
73.4061912992
66.6987056462
67.0294844815
67.7192770656
61.8655496524
62.214330557
62.9395998036
57.839409964
58.2034521366
58.9591372686
54.5376173765
54.9116667773
55.6872481321
51.6507323988
52.021704441
52.7897592588
48.0046373721
48.3604277003
49.0951171867
55909.5348969
354450.964667
426224.542018
415615.784479
381238.628486
344170.788254
310031.587004
279192.135722
250530.933841
222876.110199
195858.489041
169457.678073
144023.464553
120183.459572
98590.5197435
79741.7693243
63794.6464046
50622.5620974
39939.8799431
31397.3118746
24639.825077
19333.4158485
15184.893417
11949.4650633
9428.54854755
7463.92675367
5930.41623446
4730.61148065
3789.40595036
3048.70454141
2463.70672642
1999.9241643
1630.75349968
1335.74923776
1099.15697973
908.725624447
754.875885151
630.098784689
528.501959993
445.458955288
377.333428054
321.258295854
274.961160344
236.630349638
204.812621768
178.334748582
156.244581088
137.765547297
122.262580461
109.215120648
98.1967205054
88.8704344788
80.9754368947
74.296056004
68.6581120924
63.9283285569
59.9917393709
56.7497827483
53.843554892
50.1035769145
3.48312651
0.333708940765
0.0959963965865
0.0676017074785
0.0621364342637
0.0606877732641
0.0600848328998
0.0597687116504
0.0595821755288
0.0594735506005
0.059408964773
0.0593743860271
0.0593525679889
0.0593489294116
0.0593399754622
0.059365211396
0.0593484376621
0.059469885404
0.0610543602364
0.230337513997
5.2535297357
0.861865096808
0.193694842597
0.0886110227146
0.0672924253035
0.061912639888
0.0601472031766
0.0594194142869
0.0590575894402
0.058866924633
0.0587602362082
0.0587054090126
0.0586713677352
0.0586643061949
0.0586510225446
0.0586826649451
0.0586651068871
0.0588494602081
0.0615634017003
0.241160759704
10.4064779028
1.79139432622
0.401559196012
0.140295193891
0.0799374505578
0.0649293125941
0.0607630201847
0.0593647923938
0.0587795829072
0.0585006012546
0.0583540048455
0.0582822883616
0.0582388221587
0.0582306062432
0.0582155012177
0.0582546209285
0.0582424689439
0.0584994609862
0.0619888667842
0.249778517587
3867.20271651
46.4177630507
4.88116654528
0.735500498459
0.157857753319
0.0763386265955
0.0627296906193
0.059580687277
0.0585654599166
0.058143721008
0.0579391272718
0.0578441761654
0.0577883905576
0.057778587831
0.0577623633775
0.0578101159309
0.0578150906146
0.0581824859925
0.0628536947118
0.315540061745
20249.7973283
191.429398417
13.2128228949
2.00635928604
0.368077140015
0.106541292916
0.0673810979011
0.0602226206338
0.0584351479065
0.0578022855773
0.0575209780076
0.0573960658073
0.0573250622503
0.0573123022102
0.0572956342155
0.0573503417063
0.0573874289846
0.0578651298116
0.0642705622175
0.371478679783
36592.3947132
635.178335031
22.9398939548
3.08009107339
0.628446527249
0.155292943611
0.075578590765
0.0614736446552
0.058414079551
0.0574803106516
0.0571013360647
0.0569392851497
0.0568500396706
0.0568329302853
0.0568167734785
0.0568767396466
0.0569626911236
0.0575368535272
0.0662367091693
0.429836078952
50207.3120308
1680.59153891
31.825336138
3.51236072925
0.823625601768
0.210966711434
0.0869525158945
0.063453841587
0.0585308297598
0.0571823239837
0.056681686594
0.0564749875968
0.0563642831387
0.0563412226289
0.0563262065439
0.0563898106307
0.0565372122506
0.0572060943243
0.0685311624264
0.486754443974
62684.4440082
3160.88085101
47.2086035981
3.6647924265
0.932529288925
0.263266265556
0.100480926054
0.0661958991276
0.0588182100705
0.056915837518
0.0562640830242
0.0560045783315
0.055868933903
0.0558382011915
0.055824225386
0.0558908419408
0.0561041298243
0.0568896187774
0.0709288157819
0.535290591357
74305.7885346
4776.09510277
93.6709993527
4.29887931932
1.00687626301
0.309362192331
0.115313181308
0.0696786967184
0.0593102622343
0.0566913140391
0.0558511094005
0.0555294789345
0.0553651494051
0.0553250672147
0.0553111534722
0.0553816562164
0.0556570734043
0.0565987721171
0.0733050161036
0.571265514412
84898.1162375
6804.9187108
196.515563452
5.80542221157
1.09142142175
0.350367022148
0.130914992554
0.0738575125171
0.0600386632654
0.0565216973986
0.0554460376024
0.0550510372963
0.0548539273935
0.0548029489888
0.0547872247858
0.0548638632062
0.0551918040639
0.056335344144
0.0756145709459
0.595740685912
93900.1936366
9430.39409386
410.906689809
8.42146099901
1.20673659451
0.388346469105
0.147011877973
0.0786897231082
0.0610315162467
0.0564219742878
0.0550529996521
0.0545705375428
0.0543360191302
0.0542727176578
0.0542525600494
0.0543384242583
0.0547065729192
0.0560943395491
0.0778446740362
0.610978459748
100465.344832
12660.9830852
802.524728109
13.9651427975
1.42235809098
0.429868781466
0.163898257543
0.0841848797525
0.0623176488431
0.0564093742974
0.0546772376433
0.0540893309007
0.0538119611016
0.0537349173828
0.0537072173092
0.0538055418436
0.0542016946625
0.0558678816367
0.0799904837254
0.619233212778
104048.196677
16445.0482939
1394.39176773
30.8318506924
1.95407663222
0.49061010145
0.182607539326
0.0903977851053
0.0639212152692
0.0565015023781
0.0543249350493
0.0536089689581
0.0532821818458
0.0531897964392
0.0531512586648
0.053264781745
0.053678810981
0.0556482685884
0.0820477804063
0.622475803784
103627.55114
20919.0175079
2188.21510675
67.9487293442
2.86244551338
0.577803082138
0.20424626831
0.0974386818708
0.0658681655679
0.0567165330543
0.0540033405204
0.0531314210159
0.0527471639574
0.0526374200925
0.0525848201485
0.0527153291181
0.0531401885073
0.0554294765301
0.0840113199814
0.622270101485
99337.7366046
25282.0547121
3242.96740536
147.185670185
4.5345289056
0.711587047198
0.23151761721
0.105694208245
0.0682298580949
0.0570810517523
0.0537225771815
0.0526596951895
0.0522077217709
0.0520778532767
0.0520081802169
0.052156271499
0.052588211978
0.0552074503108
0.0858754180581
0.619795106765
91936.4625912
28741.1536301
4556.14901377
306.916373532
7.54995989435
0.918717950275
0.268719606165
0.11593124703
0.0711555369512
0.0576373809323
0.0534975479055
0.0521985024117
0.0516653102737
0.051511358375
0.0514218151867
0.0515868344335
0.0520250988101
0.0549798153686
0.0876350363506
0.615925274234
82441.5971307
30791.5608807
6015.75708773
586.003544681
14.1250543733
1.29440198231
0.326124793403
0.129716018728
0.0749226387086
0.058450167298
0.0533489859108
0.0517545286992
0.0511221803965
0.0509385168661
0.0508264162788
0.0510065303054
0.0514527814545
0.0547454016297
0.0892865307781
0.611308588855
71930.3287697
31306.0152416
7527.70121059
995.664024636
32.5146391423
2.10714754492
0.424927474991
0.149702563418
0.0799415240117
0.0595993742321
0.053300566169
0.0513354736296
0.0505811229911
0.0503601852011
0.0502228440055
0.0504152120087
0.0508728873022
0.0545037771001
0.0908280035
0.606428622969
61408.6600849
30305.4375521
9020.94669291
1504.24536357
72.911148339
3.53385878449
0.575973305903
0.178357630785
0.0867205771691
0.0611853106429
0.0533791652264
0.0509496720823
0.0500452175556
0.0497774059478
0.049612053613
0.0498130583583
0.0502867657917
0.0542548824036
0.0922594160973
0.60164917809
51502.6683946
28242.2299135
10142.7065481
2080.64954782
153.158579691
6.14606024711
0.806052076894
0.219918820527
0.0961404029856
0.0633881844046
0.0536279984368
0.0506092365024
0.0495185176254
0.0491915845347
0.0489950948887
0.0492005461005
0.0496955378614
0.0539987950543
0.0935825865183
0.597246003211
42559.0948679
25519.3804661
10736.9593449
2668.90041276
293.315953329
11.0841864877
1.16836112071
0.281038008481
0.10957720777
0.0665002363448
0.0541147376415
0.050332263842
0.0490066346298
0.0486046521609
0.0483731382413
0.0485784118598
0.0491001476578
0.0537356250118
0.0948016805141
0.593528794133
34744.1184773
22489.4213363
10771.7726843
3204.79412884
503.613199321
20.5242677497
1.7776154437
0.372580319236
0.129066300643
0.0709491865325
0.0549343550034
0.0501428880868
0.0485165157022
0.0480189209658
0.0477474095284
0.0479475742482
0.0485014007652
0.0534654831619
0.0959245893507
0.590980074672
28098.8622339
19432.4517714
10331.436156
3658.94091154
759.180463142
43.3681168758
2.99298928172
0.517140705333
0.157540017497
0.077285415475
0.056201413599
0.0500685164344
0.0480553565466
0.047436641919
0.0471190237376
0.0473090195392
0.0478999849466
0.0531884194764
0.0969593838947
0.58950933937
22574.7551578
16539.2985693
9600.57458732
3974.87770715
1020.48619683
87.3639979501
5.07831177108
0.725336632511
0.197129743487
0.0860896880827
0.0580525048617
0.0501422203784
0.0476311467185
0.0468600702699
0.0464889532616
0.0466637346756
0.0472964840749
0.0529043945089
0.0979148566257
0.589080085487
18058.8232306
13912.8140515
8709.44736245
4113.06818586
1257.27840346
159.116816928
8.73771293182
1.035461149
0.252058492506
0.098288510188
0.0607027839107
0.0504163003612
0.0472565592308
0.0462926058413
0.0458583449812
0.0460127661649
0.046691409865
0.0526133072186
0.0988007941895
0.589697364255
14409.7956995
11595.006821
7748.28363888
4068.02072879
1451.83167924
258.925904944
15.4721405249
1.54288502812
0.330798349345
0.115362506582
0.0644719376974
0.05096602327
0.0469501026672
0.0457390943362
0.0452286359464
0.0453572259608
0.0460852183281
0.0523150641251
0.0996283072414
0.591401970059
11485.4354315
9592.61434291
6781.60107371
3876.46394623
1585.95162182
376.899914336
28.1761073039
2.44304992803
0.447960777153
0.139377864103
0.0697664686404
0.0518811363342
0.0467332165184
0.045204697541
0.0446011612941
0.0446981112495
0.0454782660586
0.052009635622
0.100410123174
0.594263082677
9155.6126945
7892.52280716
5858.0862394
3595.63938365
1662.56334421
497.045035164
50.8069202562
3.9680887508
0.61510402406
0.171748647065
0.0769221987964
0.0532423177461
0.0466254625989
0.0446935012374
0.0439766628657
0.044036088873
0.0448707458835
0.0516970917043
0.101160784815
0.59837214845
7307.43246803
6471.06236589
5012.48529555
3275.069621
1688.44089714
598.57548464
86.6410315413
6.38238240286
0.842183949484
0.213091444667
0.0861923353333
0.055128215687
0.0466483430481
0.0442101873179
0.0433558310091
0.0433716650844
0.0442627401614
0.0513776637949
0.101896764389
0.6038376043
5844.35407219
5295.38794379
4259.35210951
2941.87235647
1658.63005772
674.54963639
134.0950753
10.42881684
1.18207057452
0.267424375521
0.0981904425334
0.057676380062
0.0468377529005
0.0437640840856
0.0427407528732
0.0427057424804
0.0436544254231
0.0510518766084
0.102636575952
0.610780235435
4686.56601264
4329.68228686
3599.82323123
2610.63285074
1583.77221135
721.947822425
187.744041838
17.387942785
1.73888358297
0.343164889026
0.114027695654
0.0610980954842
0.0472441711908
0.0433690109647
0.0421350234892
0.0420397268198
0.0430461647853
0.0507206833502
0.103400967038
0.619329709483
3769.89763423
3540.34505939
3029.71589772
2292.59318416
1478.3892627
743.028012955
239.967200593
28.8276793275
2.67259274763
0.452910945465
0.135260109829
0.0656648393666
0.0479262979207
0.0430404367436
0.0415426402719
0.0413750651031
0.0424383662309
0.0503855021844
0.10421309336
0.629621657773
3043.02054816
2897.07912349
2541.76764428
1995.70309687
1355.83636097
742.002434074
284.285673781
45.8438821258
4.22169582223
0.614572407347
0.163763383289
0.071680476281
0.0489441666871
0.0427929491875
0.0409669992941
0.0407127666993
0.0418312803772
0.0500481578636
0.105098498462
0.641793608806
2465.38908045
2373.8939616
2127.8793216
1725.64764268
1227.69173673
725.077017318
317.70412848
68.0098734815
6.65449974968
0.84697744249
0.200906562157
0.0793687557742
0.0503438802411
0.0426375442372
0.040410266744
0.0400531707695
0.0412248882934
0.0497107890858
0.106084820486
0.655978458928
2005.2550631
1949.13863927
1779.97327204
1485.80896605
1102.35330593
695.923663429
339.256552806
93.2623369663
10.3300124269
1.17857266235
0.248208363732
0.0889294684971
0.0521681672411
0.04258496493
0.0398747111018
0.0393965106206
0.0406190964054
0.0493758302192
0.107201281094
0.672294822393
1637.66989096
1604.52921513
1489.35828385
1275.96126813
983.350658087
657.270557604
349.505742133
118.141145343
15.8887925177
1.68037406704
0.310688650841
0.100895938052
0.0545030624764
0.042654363177
0.0393653213786
0.0387440171701
0.0400142066294
0.0490461761135
0.108478302936
0.690830523183
1343.12540636
1324.82840023
1247.43655819
1093.87189842
872.167097728
612.156944895
350.628822334
139.804398708
23.8505527418
2.46431420871
0.39758898538
0.116260870631
0.0574958411878
0.0428751631449
0.0388900269261
0.0380981185865
0.0394111239905
0.0487254395637
0.109947349471
0.711618280322
1106.39866229
1097.59800433
1046.48660931
936.866073012
769.882427458
563.812611999
344.742310771
156.187675628
34.3718624452
3.70047528406
0.524124760947
0.136598327698
0.0613682767698
0.0432866725134
0.0384586015393
0.0374619134521
0.0388112129404
0.0484181198796
0.111642145064
0.734784814255
915.535349386
912.70977914
879.756195698
802.183201814
677.124395605
514.837928845
333.513059109
167.096070673
46.6921062477
5.61878786157
0.713725575275
0.164189863023
0.066430625029
0.0439388512222
0.0380819824051
0.0368386885964
0.0382160822276
0.0481295413236
0.113596262134
0.760208991429
761.117343947
761.950951465
741.450412704
687.122996091
594.024703173
467.040918298
318.397522247
173.370629328
59.4674938
8.50587347145
1.00257744138
0.20228725133
0.0731026575565
0.0448949481939
0.0377723996464
0.0362317487875
0.0376274536815
0.0478656720341
0.115842740777
0.787741083561
635.723846116
638.703239954
626.677298189
589.145985636
520.325844519
421.621462101
300.764272031
175.96410343
71.3409660853
12.6370659764
1.44557818085
0.255574546243
0.0819493672621
0.0462359138859
0.0375440503346
0.0356445055872
0.037047142636
0.0476329663527
0.118413820893
0.817225583448
533.512132768
537.661195044
531.356519716
505.931549321
455.510798088
379.334704701
281.796131013
175.6499989
81.3421862327
18.1106676467
2.12504722757
0.33134899172
0.0937807153764
0.0480718435463
0.0374149209746
0.0350809110169
0.0364771829181
0.0474383100481
0.121340992062
0.848513165116
449.884357983
454.586197904
452.111400081
435.401605977
398.907618563
340.602307851
262.443370947
173.049269729
88.7500280972
24.8238092439
3.17155176151
0.442235943118
0.109851679818
0.0505614946604
0.0374090184197
0.0345458897605
0.0359199793975
0.0472890737807
0.124655458032
0.881467392912
381.221221657
386.098089658
386.162831344
375.723534825
349.761855731
305.574784908
243.374595004
168.636738291
93.7278450799
32.1795108165
4.75483143181
0.608821386903
0.132055925199
0.0539284435846
0.0375574242907
0.0340453425074
0.0353782844908
0.0471931567655
0.128388911332
0.915968724162
324.66595558
329.498009664
331.227320507
325.296539088
307.289433209
274.204079648
225.028961351
162.878176018
96.791304335
39.4025070713
7.05280798469
0.863959013107
0.163278671119
0.0584899770584
0.0379008771684
0.0335863561154
0.0348551435598
0.0471589291775
0.132574018861
0.951913129502
277.951570497
282.621066638
285.42387908
282.727972667
270.710699967
246.291866619
207.691664028
156.24524091
98.4046561953
45.8325951714
10.1722812219
1.25987642365
0.208272314566
0.0647388895102
0.0384986699356
0.033178519361
0.034354159328
0.0471952942346
0.137244757221
0.989204852628
239.26780356
243.720755203
247.197989908
246.812149843
239.286156428
221.593839429
191.554208953
149.182968581
98.9219274215
50.8518267523
14.1387953734
1.88058630446
0.275247782625
0.0734615013735
0.039438691745
0.0328349778335
0.0338797413953
0.0473120244801
0.142437397862
1.02775040626
207.160333937
211.381825848
215.264771506
216.515970642
212.343249504
199.86741482
176.716234758
141.989709146
98.5151574943
54.6010348405
18.5991338959
2.82764393411
0.377174237184
0.0858427767379
0.0408447744644
0.0325725535697
0.0334369371248
0.047519839162
0.148191242598
1.06745066087
180.453483659
184.452454006
188.56228186
190.960996437
189.275920933
180.835363005
163.195109654
134.845279201
97.33672948
57.3668904066
23.1290212736
4.20024327085
0.535367545086
0.103840348965
0.0429110954503
0.0324154724008
0.0330319115133
0.0478303187726
0.15454719476
1.10818168884
158.191211434
161.989923168
166.208786507
169.397221988
169.535573312
164.202697218
150.950313682
127.879379533
95.5846754333
59.4272479284
27.2461810063
6.09648538475
0.785763099734
0.13086005392
0.0459575233595
0.0324006904248
0.0326729406094
0.0482566988612
0.161548817547
1.14979273735
139.591687054
143.218422731
147.469377358
151.186114151
152.652110475
149.69365022
139.916920299
121.202417965
93.4598344083
60.9370489154
30.680982203
8.49682549861
1.17745551651
0.17229431075
0.0504695885894
0.0325799405075
0.0323705661031
0.0488147257265
0.169244236596
1.19211499054
124.014332909
127.500064007
131.735739572
135.793446113
138.216345745
137.061498889
130.024110511
114.891343417
91.0965748259
61.9396596666
33.4972392349
11.2304630344
1.76580064842
0.236325578894
0.0571645414947
0.0330235083676
0.032137416178
0.0495222239829
0.177684414993
1.23496210844
110.933081999
114.309399968
118.503127159
122.769898777
125.875221573
126.0759948
121.180938317
108.970682449
88.5612720915
62.459807118
35.8273893897
14.1084076301
2.59887698344
0.335556948136
0.0672150391756
0.0338407728075
0.0319904749438
0.0503990013378
0.18691697447
1.27809686484
99.9155601776
103.21213324
107.351891977
111.740747085
115.325380972
116.539319905
113.31871795
103.483497968
85.9486348316
62.6000733592
37.8220981209
16.825140464
3.76215717371
0.491295769655
0.0826287069181
0.0352059174685
0.0319540752269
0.0514698019876
0.196992705495
1.32128195343
90.6220074077
93.8734056284
97.969643274
102.43902068
106.377070706
108.365969454
106.447374991
98.4513271956
83.2941728624
62.4058965338
39.4890837602
19.2520215318
5.24364782823
0.727647699554
0.106140147057
0.0373471901145
0.0320577916673
0.0527659061813
0.207971912779
1.36432645932
82.7904398813
86.0353355255
90.1104375354
94.6403718136
98.8329955999
101.377716722
100.402716643
93.7932950998
80.5845797246
61.8754278139
40.7650260392
21.3551655031
6.98861204258
1.07043133707
0.141620052797
0.0405899969104
0.0323387844333
0.0543227215372
0.219964266673
1.4069675189
76.1982694338
79.4661997396
83.533144305
88.0948924788
92.438147293
95.3294260604
94.981490374
89.4477589932
77.8596156065
61.0675450419
41.6606279235
23.1831099496
8.85535325807
1.58066747144
0.196505516879
0.0455128633378
0.0328539584502
0.0561856167738
0.233151118807
1.44878331756
70.6617548662
73.9711654889
78.0350372433
82.6005158326
87.0079996986
90.0772397321
90.0944172279
85.3680968566
75.1219770088
60.0134974149
42.2046587227
24.7646726383
10.6933447462
2.31235152116
0.281551415525
0.0529877136802
0.0336837379659
0.0584119054158
0.247568870623
1.48954124613
66.0373717413
69.3947975178
73.4500412826
77.9818603343
82.3557246037
85.4160300457
85.5936485009
81.4622223829
72.3341217098
58.7165271703
42.4123665445
26.0755321767
12.3996728758
3.2918340721
0.411213019971
0.0643345884663
0.0349465338701
0.0611436971704
0.263187917829
1.52899403293
62.1953665985
65.5845422146
69.5955793393
74.0147444447
78.2057266132
81.0780457292
81.2798338167
77.5992561585
69.4278973441
57.1541111685
42.2763368949
27.0746147531
13.9188466863
4.4719322903
0.630979345354
0.0827763060283
0.0368710270725
0.0644920279838
0.279913158681
1.5668194107
59.0186732702
62.3855493109
66.2614476749
70.4269478691
74.2807736888
76.8648091261
77.0273221725
73.7266929234
66.4160505643
55.3800663292
41.8535294259
27.7822850999
15.2465912208
5.77485365324
0.98881457076
0.114028142314
0.0398839483643
0.0685298523259
0.297599307774
1.60262108595
56.0913768969
59.2942813666
62.8595828609
66.5875860522
69.9584845504
72.1606029298
72.220478738
69.249323976
62.7597780849
52.9490163518
40.8137586097
27.9816945189
16.2562033767
7.04869604985
1.52295778501
0.171047237548
0.0449571814155
0.0733238559549
0.316005904236
1.6358786663
52.2528294478
55.2021532248
58.4028994757
61.7137200439
64.7217821538
66.7633548358
67.018212013
64.700833887
59.3194645776
50.9255862689
40.2470627742
28.6036617444
17.5774504262
8.53200583475
2.34503899685
0.289222136245
0.0544577435161
0.0789102740631
0.33457861618
1.66701751476
1.55121205759
2.84132914665
3.3375296662
3.271647912
4.19484710027
3.90608763485
4.44351008519
4.35370350286
4.47223854718
4.77213271727
4.29849493061
5.25007745522
4.06624859486
5.7088174689
3.83938135623
6.14615129878
3.6390988976
6.56453583989
3.47047770187
6.95881633128
3.33153523386
7.32112850371
3.21746033989
7.64421126955
3.1228492046
7.9227464875
3.04274386241
8.15388372267
2.97305940473
8.33723365267
2.91070508914
8.47454000052
2.85352174352
8.56923358237
2.79984520159
8.62553653334
2.74993570945
8.64721262898
2.70447523725
8.64105086513
2.66290821236
8.61457983314
2.62533233858
8.57392290172
2.59216432766
8.52400240151
2.56391356816
8.4688086709
2.54105524862
8.41159480721
2.52396922687
8.35501895025
2.51291620926
8.30125475885
2.5080362966
8.25207618459
2.50935804648
8.20891669625
2.51680749424
8.17290640126
2.53021300481
8.14490397805
2.54930693387
8.12553486727
2.57371971814
8.11534099929
2.60303321549
8.11462843834
2.63680119963
8.12395490842
2.67530150354
8.14432029258
2.71737877696
8.17680902934
2.76204637686
8.22113354358
2.80842670975
8.27607640554
2.85576016708
8.33990840794
2.90344109408
8.41072073485
2.95104452147
8.48666181043
2.99831722347
8.56614054658
3.0451735408
8.6479602864
3.09162022633
8.73130601915
3.13774459411
8.81568611637
3.18359562914
8.90090676875
3.22924246976
8.98687711464
3.27459151922
9.07321548251
3.31955374002
9.15943001973
3.36388820927
9.24503489463
3.40738037645
9.32908848347
3.44970590733
9.40990046632
3.49055341328
9.48632198612
3.52971491772
9.55748637507
3.56677659061
9.62232189742
3.60169291633
9.6806624484
3.63404507585
9.73293312695
3.66396100925
9.78262295614
3.69124930687
9.82425192316
)
;

boundaryField
{
    inletfuel
    {
        type            compressible::turbulentMixingLengthDissipationRateInlet;
        mixingLength    0.005;
        phi             phi;
        k               k;
        value           uniform 1630.0935556;
    }
    inletair
    {
        type            compressible::turbulentMixingLengthDissipationRateInlet;
        mixingLength    0.005;
        phi             phi;
        k               k;
        value           uniform 0.0603738353925;
    }
    outlet
    {
        type            inletOutlet;
        inletValue      uniform 200;
        value           nonuniform List<scalar> 
26
(
48.0046373721
48.3604277003
49.0951171867
50.1035769145
52.2528294478
55.2021532248
58.4028994757
61.7137200439
64.7217821538
66.7633548358
67.018212013
64.700833887
59.3194645776
50.9255862689
40.2470627742
28.6036617444
17.5774504262
8.53200583475
2.34503899685
0.289222136245
0.0544577435161
0.0789102740631
0.33457861618
1.66701751476
3.69124930687
9.82425192316
)
;
    }
    axis
    {
        type            empty;
    }
    leftside
    {
        type            compressible::epsilonWallFunction;
        Cmu             0.09;
        kappa           0.41;
        E               9.8;
        value           nonuniform List<scalar> 
65
(
1.55121205759
2.84132914665
0.230337513997
0.241160759704
0.249778517587
2.84132914665
3.271647912
3.90608763485
4.35370350286
4.77213271727
5.25007745522
5.7088174689
6.14615129878
6.56453583989
6.95881633128
7.32112850371
7.64421126955
7.9227464875
8.15388372267
8.33723365267
8.47454000052
8.56923358237
8.62553653334
8.64721262898
8.64105086513
8.61457983314
8.57392290172
8.52400240151
8.4688086709
8.41159480721
8.35501895025
8.30125475885
8.25207618459
8.20891669625
8.17290640126
8.14490397805
8.12553486727
8.11534099929
8.11462843834
8.12395490842
8.14432029258
8.17680902934
8.22113354358
8.27607640554
8.33990840794
8.41072073485
8.48666181043
8.56614054658
8.6479602864
8.73130601915
8.81568611637
8.90090676875
8.98687711464
9.07321548251
9.15943001973
9.24503489463
9.32908848347
9.40990046632
9.48632198612
9.55748637507
9.62232189742
9.6806624484
9.73293312695
9.78262295614
9.82425192316
)
;
    }
    burnerwall
    {
        type            compressible::epsilonWallFunction;
        Cmu             0.09;
        kappa           0.41;
        E               9.8;
        value           nonuniform List<scalar> 7(839090.351492 1336362.65659 1590810.68856 3.48312651 5.2535297357 10.4064779028 55909.5348969);
    }
    front
    {
        type            wedge;
    }
    back
    {
        type            wedge;
    }
}


// ************************************************************************* //
