/*--------------------------------*- C++ -*----------------------------------*\
| =========                 |                                                 |
| \\      /  F ield         | OpenFOAM: The Open Source CFD Toolbox           |
|  \\    /   O peration     | Version:  2.4.x                                 |
|   \\  /    A nd           | Web:      www.OpenFOAM.org                      |
|    \\/     M anipulation  |                                                 |
\*---------------------------------------------------------------------------*/
FoamFile
{
    version     2.0;
    format      ascii;
    class       volScalarField;
    location    "0";
    object      epsilon;
}
// * * * * * * * * * * * * * * * * * * * * * * * * * * * * * * * * * * * * * //

dimensions      [0 2 -3 0 0 0 0];

internalField   nonuniform List<scalar> 
1629
(
50781.7882311
133770.494095
784233.887867
47365.4930076
148033.472623
1224173.86387
52119.7608138
178687.856155
1449328.31674
54551.6661096
176596.79422
1041015.57945
55018.3337947
171537.663193
785983.342949
54821.7791416
166828.562823
602906.121896
55208.8744664
164145.466165
477287.728429
56885.5977293
162735.70999
389313.071225
59967.8132577
161046.1663
325539.058357
63959.0575276
157433.403608
276932.767971
67793.4573517
150653.319668
237720.943838
70186.4405066
140481.391678
204677.2754
70338.6006252
127908.201898
176221.89331
68366.5483859
114284.495167
151474.813396
64802.2683381
100584.783797
129714.085876
60214.3058819
87427.3900086
110303.134456
55075.4611113
75051.3185146
92663.0237281
49548.5647736
63424.8308217
76435.288815
43635.4606458
52606.577441
61677.8503308
37477.8218875
42845.3081193
48733.902321
31392.0303106
34377.6513152
37906.0159139
25731.0801718
27295.1663432
29249.2590517
20776.4900061
21563.392652
22574.1603607
16672.3061643
17060.5143426
17554.2233842
13411.0875311
13601.3960981
13827.5826541
10875.4336478
10967.8179463
11059.0801031
8904.75119142
8947.96957752
8972.18503854
7350.12100181
7368.25755014
7360.4258215
6099.47200179
6104.70654616
6082.97805296
5077.51116774
5076.19899493
5049.87436025
4234.64370002
4230.27361906
4204.06816825
3536.2634676
3530.81797346
3507.0264187
2956.06615851
2950.66765832
2930.29950968
2472.64253706
2467.90897378
2451.32076022
2068.2683375
2064.50280316
2051.68399759
1728.63158523
1725.92950904
1716.63281629
1442.57076424
1440.88867319
1434.70480273
1201.65572158
1200.87335951
1197.30355072
999.346479129
999.312128069
997.841921805
830.135199588
830.678446605
830.808514265
689.206322113
690.155214602
691.423761641
572.327541669
573.529572489
575.540443005
475.769043895
477.09975811
479.534326431
396.262448694
397.626911286
400.243306207
330.972724342
332.303313246
334.928497249
277.470983554
278.723285539
281.241490441
233.70134801
234.849155496
237.189093507
197.940369299
198.970770446
201.093710834
168.756257625
169.665742244
171.556001232
144.969591016
145.760961838
147.418442273
125.615231633
126.295104434
127.729460822
109.909565882
110.486608127
111.713037482
97.2237688398
97.7071388852
98.7427618682
87.0714846955
87.4709027418
88.3345524329
79.0785272599
79.4053063277
80.1195866599
72.9411651247
73.2075902176
73.7972169334
68.4219088943
68.6412492541
69.1327983932
65.3620708218
65.5498181138
65.9744944765
63.710279147
63.884380744
64.2779452097
63.2269265065
63.3909388298
63.756898499
62.5894571967
62.7282577983
63.0330978727
60.6322794789
60.7383236317
60.9679461299
56.5688691196
56.6483085391
56.8182966317
60133.3764727
338334.613422
386712.245796
361145.645852
319603.901953
279300.448983
244021.73649
213797.289641
187729.635303
164927.860883
144702.820596
126286.08547
109068.346781
92667.8141861
77036.3284843
62491.3416047
49512.2178961
38505.8014389
29632.3377513
22772.2789823
17621.5382135
13811.7118927
10994.4847891
8883.35274873
7264.62965962
5991.1989407
4967.8913752
4134.09119485
3449.13693471
2883.57101993
2414.53677221
2023.60539401
1696.04903104
1420.42274869
1188.15458163
992.734346462
828.760917861
691.580996495
577.190817643
482.1126683
403.321450301
338.197753799
284.490865146
240.282901614
203.951558332
174.136783831
149.707859514
129.73060359
113.439480664
100.212868601
89.570269121
81.1487444862
74.6512962251
69.8461738592
66.5884426765
64.8398430826
64.2699173835
63.4530905448
61.2786596119
57.0437463302
3.49602696349
0.37862065406
0.108150951704
0.0714350914144
0.0637208426891
0.0614340321733
0.0604667554708
0.0599667855288
0.0596861507398
0.0595281486377
0.0594379682385
0.0593901300116
0.059361163533
0.059354026802
0.0593428007654
0.0593672805372
0.0593495029331
0.0594710067968
0.0610547660565
0.230337463905
4.92931073199
0.950388152873
0.249634506542
0.106610240677
0.0732020759323
0.0639874165361
0.060980570279
0.0597901418523
0.0592352784794
0.0589547253167
0.0588046660008
0.0587284546463
0.0586833038868
0.0586710049589
0.0586543915195
0.05868502284
0.0586661434067
0.0588507153432
0.0615641509479
0.241160484954
13.7184609497
2.60468406747
0.665591546511
0.206926233277
0.0970024929176
0.0695895455333
0.0622479203787
0.059928878825
0.0590262435871
0.0586163029212
0.0584103099575
0.058310459035
0.0582527151799
0.0582380162764
0.0582187845865
0.0582568291411
0.0582431161224
0.0585005701512
0.0619897652713
0.249776245706
4874.12876246
78.1588788012
7.67598246783
1.20217588947
0.23353948017
0.0892555416167
0.0656112671038
0.0604657244458
0.0589100476202
0.0582965511994
0.0580106420134
0.0578787353615
0.0578045583553
0.0577867038834
0.0577653046652
0.0578119242777
0.0578149446424
0.0581830587103
0.0628529046591
0.315324957056
20478.8549934
278.291703007
15.4344148793
2.45786798616
0.484475279168
0.130822836005
0.0724820482973
0.0615949465788
0.0589122915459
0.0580026635851
0.0576115133314
0.0574385944232
0.0573440296758
0.0573212389618
0.0572980734363
0.0573515215673
0.0573860765491
0.0578646677348
0.064266309011
0.371093973822
35803.9818821
864.917172391
25.860060871
3.45207372325
0.757777871631
0.190872402558
0.0836400022398
0.0635489149487
0.0590733656658
0.0577419045191
0.0572155685183
0.0569917059145
0.0568724827759
0.0568428746104
0.0568185874146
0.0568771053104
0.0569597719655
0.0575350202174
0.0662281026047
0.429361751742
48523.186314
2055.16880044
33.2598050001
3.67687426898
0.934662144801
0.254013599385
0.0983168869315
0.0664460445168
0.0594355996966
0.0575224233916
0.0568252521794
0.0565396173711
0.0563911376055
0.0563525797992
0.0563274782697
0.0563893994479
0.0565326394009
0.0572029633984
0.0685182156238
0.486254828044
58761.91647
3309.17840542
57.3379318372
3.94276290876
1.03461240764
0.311389287714
0.115318846254
0.0703104907775
0.0600451237079
0.0573563193457
0.0564439252076
0.0560842098214
0.0559014633091
0.0558516558069
0.0558253225544
0.0558899857094
0.0560981745205
0.0568856883185
0.070912368602
0.534810248039
66990.6136305
4635.7242605
111.204508506
4.73567239001
1.10993295983
0.361695888384
0.133764535355
0.0751229110801
0.0609477805408
0.0572594414587
0.0560757884912
0.05562743746
0.0554049671633
0.0553416026124
0.0553127588392
0.0553809901962
0.0556503557581
0.0565948451265
0.0732864629256
0.570830597462
73534.7860818
6209.44601752
217.015220933
6.40237709807
1.19777130375
0.405762724716
0.152871867336
0.0807996883343
0.0621764060132
0.0572489547125
0.0557256865376
0.0551711846935
0.0549030051708
0.0548238403718
0.0547903313158
0.0548642899021
0.0551852249537
0.0563323889797
0.0755955875956
0.595368784001
78542.1503506
8092.90173839
408.908477249
9.33727294385
1.31923190716
0.445054391331
0.171938234395
0.0871935096251
0.0637431194129
0.0573406833943
0.0553987918989
0.0547171635609
0.0543966295221
0.0542994801401
0.0542584179864
0.0543410341115
0.0547012064124
0.0560933609762
0.0778270050932
0.610681199721
82042.2596031
10311.6093888
718.632446705
15.1432360656
1.514230302
0.482552704006
0.190487200405
0.0941229766251
0.0656392970069
0.0575473911233
0.0551003695661
0.0542668894419
0.0538865416419
0.0537691964283
0.0537172315507
0.0538115019771
0.0541986613963
0.0558698114615
0.0799758265086
0.619019029543
83840.9352525
12967.4115701
1125.51488472
30.0065823209
1.91352242509
0.526865331961
0.208653528159
0.101430570432
0.0678427332473
0.0578784706175
0.0548357752076
0.0538218043769
0.0533731483556
0.053233219504
0.0531668519366
0.0532752109674
0.0536791546061
0.0556538873876
0.0820377620209
0.62235228956
83195.4379451
16150.1355804
1644.89279042
59.3631449327
2.57913368428
0.585113781716
0.22723242065
0.109089906899
0.0703428227112
0.0583438827824
0.0546113097974
0.0533836548455
0.0528567569301
0.0526914439018
0.0526072864928
0.052731177699
0.0531447719867
0.0554393703063
0.0840075365178
0.622245532944
80151.968332
19323.1945463
2325.95611206
116.424623925
3.78396694663
0.674003581814
0.248341482977
0.117317508148
0.0731677174527
0.0589596712771
0.0544355019383
0.052955020367
0.0523378514949
0.0521436147007
0.0520385462418
0.0521782181981
0.0525976416675
0.0552219964382
0.0858795034352
0.619879444252
74920.8405685
22071.876604
3197.01346083
223.580070543
6.02236773616
0.819131049603
0.275446188974
0.126589758012
0.0763887580943
0.059748500732
0.0543191248806
0.0525394763716
0.0518172792715
0.0515894998187
0.051460708588
0.0516152041055
0.0520396775474
0.054999191816
0.0876487422399
0.616130864087
67889.1944013
24048.9154448
4230.65728736
405.538218888
10.9690895207
1.08470203088
0.315088638589
0.13775551033
0.0801212150517
0.0607363221633
0.0542735934495
0.0521411560919
0.0512962066309
0.0510289726053
0.0508739399865
0.0510412336031
0.0514724873162
0.0547696111146
0.0893117985425
0.611650432206
59642.9798542
24969.9448643
5404.05933007
677.269677232
24.1915379286
1.6075691175
0.377467781458
0.152033935718
0.0845169378899
0.061947828756
0.0543087218195
0.0517640144358
0.050775919926
0.0504620212483
0.0502784856298
0.0504557168824
0.0508973767617
0.0545326815576
0.0908670178858
0.606924276584
50909.6192533
24508.8835555
6706.41676327
1028.92095811
51.3701710614
2.45974949909
0.468123376773
0.170720748136
0.0898053284267
0.0634211991976
0.0544355000401
0.0514123313712
0.0502579198616
0.049888823305
0.0496746738669
0.0498584068514
0.0503154006754
0.0542882431907
0.0923146319182
0.602316306782
42281.9164563
22916.3267838
7769.34435169
1451.93699462
103.435685445
4.0491695313
0.609673475088
0.19687805368
0.0965105120622
0.065250461983
0.0546757171677
0.0510931562205
0.0497445865144
0.04930998172
0.0490629758233
0.0492494052543
0.0497274298974
0.0540363212172
0.0936567100165
0.598105910091
34272.4454567
20560.1912104
8366.86527678
1915.16088142
194.824675526
7.3645077946
0.853366748168
0.236594950636
0.105614471236
0.0676104839593
0.055067123245
0.0508175935508
0.0492396068699
0.048726674549
0.0484440554966
0.0486291414134
0.0491342121829
0.0537770249647
0.0948983624733
0.594723110246
27268.5560536
17859.0109601
8370.7655869
2383.31761294
336.382377764
14.5680597018
1.29590032507
0.299657614813
0.118640958216
0.0707641645559
0.0556621188996
0.0505996074356
0.0487474981341
0.0481404622991
0.0478187109493
0.0479982979121
0.0485364140767
0.0535104877258
0.0960475150919
0.592520664014
21456.778088
15136.650266
7935.12092662
2736.19568123
519.023109329
28.8581410591
2.0665547887
0.396047826876
0.137319571985
0.075033204334
0.0565228805076
0.050454032718
0.0482727591845
0.0475529314324
0.047187743646
0.0473577071474
0.0479346423466
0.0532367875175
0.0971121898893
0.591406939859
16833.4567971
12617.813213
7246.5700387
2938.69878676
708.348810766
54.538086947
3.35412169367
0.532469523418
0.162866696047
0.0807160667258
0.0577139749054
0.0503956785377
0.0478195177274
0.0469655352364
0.0465518928177
0.0467082761523
0.0473294524529
0.0529559050348
0.0981009391999
0.591342526095
13263.3792483
10425.1143848
6460.65789489
2977.75215842
884.276476898
95.3185654922
5.57382098747
0.725959490545
0.196899117568
0.0881665706677
0.059318104763
0.0504444931512
0.0473931481386
0.0463801187291
0.0459119975274
0.0460510059845
0.0467213703996
0.0526677471976
0.0990231263334
0.59232873222
10549.7783054
8591.55733356
5672.11387247
2896.02100343
1015.88175311
151.478741712
9.48044644537
1.01941176863
0.243162717931
0.0980099796539
0.0614700799888
0.0506339611753
0.0470029965922
0.0457998568055
0.0452693316567
0.0453870873176
0.046110935764
0.0523722217981
0.0998892678705
0.594401620767
8491.58594071
7094.71968199
4934.47707297
2736.61012783
1096.32207581
218.59813712
16.0752888106
1.48420401988
0.307777482388
0.111217241772
0.0643685742613
0.0510123283835
0.0466626285031
0.0452293083433
0.0446256532548
0.0447178973666
0.0454987166179
0.0520693186011
0.100711367576
0.597624934918
6915.19630883
5885.71962933
4272.74340528
2536.14652422
1131.26444043
288.660173736
26.5312005744
2.23202893412
0.39935858613
0.129099939422
0.0682722417147
0.0516388971191
0.0463878790313
0.0446734870775
0.0439828220434
0.0440448151722
0.044885256689
0.0517591669654
0.101503198099
0.602084763514
5686.1870962
4908.54955376
3691.98892448
2319.61087655
1131.83866443
353.824694216
42.0948384455
3.43869703509
0.529537245025
0.153183137992
0.0734760321281
0.0525779483782
0.0461945086758
0.0441368199094
0.0433423220003
0.043368986094
0.0442709897993
0.051442066368
0.10228050512
0.607884816453
4709.37252632
4113.54741158
3188.45547169
2104.16303276
1112.00133457
411.050840029
63.1112363797
5.25141459312
0.705167614545
0.184230021664
0.0802032760082
0.0538864231914
0.0460964168035
0.0436227292021
0.0427050745645
0.0426912246262
0.0436562009728
0.051118516775
0.103061109417
0.615141598349
3920.75383624
3461.93950843
2755.50100506
1900.8269684
1080.19699009
453.261392175
91.1511075319
7.96452263847
0.941696228134
0.223120385214
0.0886907268182
0.0556325491939
0.0461116923515
0.0431358182353
0.0420722031988
0.0420123024085
0.043041129457
0.0507892924687
0.1038649471
0.623979575403
3276.76288999
2923.65060445
2383.62194468
1711.94482308
1037.24138037
480.675033195
123.657415193
12.2318515524
1.29577246871
0.274282173267
0.0995790304513
0.0579516388991
0.0462743432842
0.0426854601816
0.0414463442973
0.0413334726359
0.0424261840251
0.0504555899546
0.104714169687
0.634527197196
2746.6536534
2475.72406146
2063.14499833
1536.6294158
984.155443186
495.971759222
157.28994023
18.9638635962
1.86835779032
0.346424648745
0.114047986819
0.0610641830165
0.0466358370497
0.0422858041897
0.0408317071878
0.0406565282625
0.0418120275226
0.0501191755477
0.105633366071
0.64691413286
2307.67332112
2100.88173129
1786.2202371
1374.46802048
923.864543572
501.539125078
188.565365876
29.1027120373
2.81072311902
0.452568600241
0.133780008018
0.06526871974
0.0472602398808
0.0419532843363
0.0402330021215
0.0399833252604
0.0411994227089
0.0497824250542
0.106649771122
0.66126866575
1942.03330437
1785.56094917
1546.38870385
1225.32670966
859.598185203
499.114726997
214.637349962
43.2803802673
4.35932016938
0.612748135742
0.161025723469
0.0709411929588
0.0482218339042
0.0417052235743
0.0396546787065
0.0393153637324
0.040589041391
0.0494482634209
0.107793198749
0.677712246979
1635.62879289
1518.86419888
1338.1689348
1088.91394001
793.897588351
489.923486956
234.453579671
61.038502663
6.870353521
0.858931176222
0.198756279569
0.0785366868197
0.0496052172143
0.0415600600804
0.0391009686362
0.0386537706475
0.0399814159045
0.0491200774164
0.109095653425
0.696345034958
1377.46179885
1292.13401149
1156.97734163
964.763810746
728.600027968
475.120971835
248.572602966
80.646320742
10.8070918269
1.24164839266
0.251082787448
0.0886283507461
0.0515126995515
0.0415395602602
0.0385767667521
0.0379996981376
0.0393770834964
0.0488017241539
0.110590584005
0.717219058224
1159.27171667
1098.75278258
999.195577307
852.458156766
665.232981205
456.198335281
257.694220701
99.8867658441
16.5394116031
1.83076338382
0.323794864999
0.101986726605
0.0540805577343
0.0416725598837
0.0380889140315
0.0373549058104
0.0387768638546
0.0484976903721
0.112312979846
0.740426319802
974.873016077
933.696709463
861.925749016
751.437592552
604.688078803
433.972005006
262.016703618
116.393967923
24.4432176908
2.74963557086
0.427599000581
0.119838143998
0.0575083130761
0.0419985659368
0.0376469272023
0.0367220647842
0.0381820580613
0.0482132555606
0.114297963555
0.765921078656
819.254342299
792.881621583
742.595635774
660.769835553
547.079441726
408.805806701
261.629989251
128.969987717
34.5711006691
4.21621856863
0.583244261322
0.144262631052
0.0620952654062
0.0425703256163
0.0372628486607
0.0361045817256
0.0375944248187
0.0479545042518
0.116579619809
0.793529092212
688.170523032
672.874986492
638.968872935
579.540237588
492.52194127
381.50841799
257.126869167
138.072906503
45.9623150992
6.52089266454
0.824954888639
0.178462958927
0.068263590101
0.0434545845821
0.0369504844673
0.0355061300418
0.037015986253
0.0477282168101
0.11919135824
0.823078815896
578.021070685
570.787780215
549.166892491
507.037232849
441.343348244
353.131516201
249.334758582
144.185748932
57.3816615822
9.98202333917
1.20603916117
0.227185828085
0.0765928729299
0.0447352935181
0.0367252866333
0.0349304126281
0.0364488769416
0.0475417295238
0.122166302761
0.854415651909
485.713944329
484.150499557
471.574658718
442.656962217
393.882869428
324.627564224
239.111004136
147.696435445
67.7376739224
14.7900497954
1.80736838168
0.297857891207
0.0879221565001
0.046526297849
0.0366061194077
0.034381534881
0.0358954149637
0.0474028742645
0.125537772851
0.887408119572
408.575715722
410.833079776
404.781164834
385.842129285
350.382337851
296.80347311
227.279420563
148.936074316
76.0495018272
20.9642725809
2.75712801583
0.403071365598
0.103523230013
0.0489872790046
0.0366167977482
0.0338642987354
0.0353582018104
0.0473200665594
0.129340047283
0.921948753667
344.290740254
348.983543255
347.530900057
336.044259658
310.988835018
270.261212357
214.50497926
148.15794387
82.2516348113
28.0013151846
4.22153213382
0.562878743235
0.125250368639
0.0523337320134
0.0367862331279
0.0333840271313
0.034840029213
0.0473023387521
0.133609248848
0.957952738903
290.855514614
296.977243506
298.681663937
292.697172193
275.719506175
245.411360247
201.309586849
145.684497748
86.6727827866
35.1644240237
6.37175181047
0.809009729842
0.155945667678
0.0568749679268
0.0371527739586
0.0329471959237
0.034343970195
0.0473593355075
0.138383636084
0.995347592681
246.542751465
253.382839189
257.180934581
255.207011016
244.451722254
222.503841911
188.12442936
141.921761368
89.6457337664
41.7615671349
9.3244614425
1.19139718324
0.200228214545
0.0630846399358
0.037771870173
0.032562580324
0.0338737339396
0.0475016261871
0.143704354873
1.03406436497
209.871085415
216.943279803
222.063230538
222.967274455
216.970482971
201.676745212
175.325507163
137.314968941
91.4486976673
47.1069844
13.146457968
1.78888201117
0.265654864574
0.0716689700718
0.038719954395
0.0322412069088
0.033433675372
0.0477410976545
0.149616909031
1.07403167911
179.58123068
186.565000917
192.455868897
195.38793803
193.002095812
182.973004829
163.193524536
132.20728219
92.2129050194
51.2592092025
17.5261369814
2.69694366686
0.363828420427
0.0836558896994
0.0401006147345
0.0319964037033
0.0330286037351
0.0480909192593
0.156171006594
1.11516358767
154.611866726
161.30529366
167.580470614
171.910531284
172.238556885
166.344044607
151.895575257
126.840233188
92.0726000063
54.4291558877
22.0690401316
4.00884057517
0.513643205281
0.100767178431
0.04208209362
0.0318485029726
0.0326646671557
0.0485658186507
0.163419878624
1.15734667461
134.075037724
140.359673842
146.752522623
152.013867681
154.361766125
151.691462782
141.531700576
121.414368789
91.2415146308
56.8679128545
26.1995537919
5.86136995623
0.748902079793
0.125972353885
0.044931487701
0.0318273968662
0.0323501958669
0.049183901125
0.171424494195
1.20045534683
117.234352221
123.04961002
129.38027554
135.23109658
139.059322659
138.878483754
132.132635819
116.078700883
89.9247918094
58.6919852355
29.6458049541
8.24062485698
1.11473639566
0.163516179968
0.0489963441747
0.0319672853434
0.0320944500768
0.0499673674962
0.180258460852
1.24438235018
103.48352746
108.806414726
114.959036663
121.149623044
126.043310978
127.774543478
123.757957899
111.028462687
88.3237605097
59.9637792408
32.4447911047
10.9964924873
1.66244866634
0.219866164204
0.054794098052
0.0323145211321
0.0319082529437
0.0509445538245
0.190088703209
1.28888723707
92.3531360015
97.1929823519
103.113133532
109.492826357
115.184867405
118.438971617
116.60598568
106.259419505
86.3603747861
60.5990125329
34.6669723032
13.7815774177
2.48376545092
0.306968057084
0.063183497348
0.0329369803006
0.0318057787345
0.052156880112
0.201309232931
1.33348463941
83.4945878166
87.8883572662
93.5598667597
100.029639199
106.294509967
110.653649099
110.330430336
101.582815
83.9652650158
60.5791763701
36.3545661154
16.2426175392
3.6383763956
0.442505491481
0.0754283653823
0.0339220347108
0.0318037597863
0.0536547278576
0.213987258169
1.37797495439
76.6202093443
80.6176184242
86.0339102086
92.4906617043
99.0820441573
104.080364801
104.507442317
96.943286951
81.2583189812
60.0418785727
37.5495098741
18.2665239544
5.08897189371
0.647691985732
0.0934537334384
0.035399882555
0.0319300905349
0.0556669561281
0.22801967792
1.42213191489
71.5054611749
75.1675895998
80.339122392
86.7037669252
93.3954791303
98.5616180134
99.0158039005
92.2273345711
78.1776924366
58.970771929
38.2165140473
19.8633254204
6.65142446891
0.98558530455
0.121753951746
0.0376153271741
0.0322271911137
0.0582591922177
0.243421405471
1.46560476345
68.0215609097
71.4307051817
76.3878049273
82.5735294313
89.002150287
93.554595917
93.510057053
87.1982824999
74.5743075596
57.2820675147
38.3035247795
21.0467409601
8.1445819067
1.4862133105
0.166161529017
0.0409196001385
0.0327910581096
0.0614569648054
0.260197979347
1.50775093503
66.1422096166
69.3609044691
74.0207371034
79.6324749529
85.0251470157
88.3215763199
87.6207751529
81.6798992209
70.3810924167
54.9576892164
37.8075792961
21.8193398137
9.43833478929
2.13511992928
0.24499112418
0.0464690029862
0.0337332466624
0.0653121942214
0.278244443877
1.54770259856
65.4366372783
68.240327034
72.1293738648
76.5382099969
80.433473582
82.449208517
81.1860200903
75.6432526718
65.6372762104
52.0530073332
36.7686784027
22.1814897656
10.470990765
2.89322657789
0.372939582919
0.0564061532363
0.0352117634554
0.0698387651388
0.297312196071
1.58453166891
64.3896015074
66.544066091
69.4221583702
72.5520073083
75.152088954
76.19388976
74.5954358761
69.5313073288
60.772694281
48.9267861836
35.4361139105
22.2583007893
11.2897349943
3.71329123705
0.568193885134
0.0738762797873
0.0374607371436
0.0749670144122
0.316908193284
1.61741608053
61.9589030721
63.4956065152
65.5016443941
67.6056064561
69.2139544115
69.5452356998
67.7618419631
63.1943353095
55.605841447
45.4002549937
33.6611107133
21.9456381916
11.8546994674
4.51595845501
0.84542259448
0.104083215679
0.0408978840156
0.0806366006263
0.336616082932
1.64544105014
57.5284875821
58.6382270338
60.0841244935
61.5848847843
62.6944182819
62.8165570231
61.2886348348
57.5382980045
51.2861669002
42.7303616208
32.6251274829
22.1802073532
12.767336003
5.51651908695
1.27435424125
0.160573087192
0.04651443523
0.0864644492557
0.355340968199
1.67001501042
1.48558325377
2.63773055442
3.29142572577
3.24708289443
4.1659646798
3.89073237532
4.42604063494
4.34727751447
4.46206651351
4.76933227864
4.29267814593
5.2497769093
4.06311380729
5.71015777517
3.83795823358
6.14855412286
3.63881285716
6.56759763254
3.47098377676
6.9622230949
3.33262162344
7.32460578386
3.21899246358
7.64748884344
3.12473571895
7.92553067863
3.04491301737
8.15583720268
2.9754415766
8.3379579795
2.91321838225
8.47359493062
2.85605702632
8.56607920394
2.80184255435
8.6193752405
2.7521946535
8.63695463664
2.70669453871
8.62650163465
2.66487222315
8.59537571549
2.62687672675
8.54957425935
2.59315290327
8.49396855614
2.56422618158
8.43256515731
2.54058449326
8.36869032287
2.52262348091
8.30512362874
2.51062301268
8.24419504252
2.504742948
8.18785948238
2.50503057613
8.13775269032
2.51143111917
8.09523597223
2.52380300246
8.06141701462
2.54191725297
8.03714940338
2.5654492461
8.02309314346
2.59399730378
8.01957817943
2.62704692306
8.02697697254
2.66484761525
8.04590895701
2.70625120202
8.07741960696
2.75024756713
8.12117527407
2.79595217773
8.17588272712
2.84260056245
8.23968959291
2.88959537129
8.31054808084
2.93651125119
8.38645204928
2.9830910524
8.46563384775
3.02922527394
8.54668677559
3.07488750033
8.62858655479
3.1201221703
8.71057143399
3.1649317033
8.79210287129
3.20935039032
8.87285038154
3.25327381928
8.95209995655
3.29660126686
9.02864076626
3.33905653105
9.10113334726
3.38041324938
9.16816961119
3.42022756125
9.22827501982
3.45821597817
9.28057697651
3.49404494521
9.32510929381
3.5269625415
9.36155222228
3.55534846038
9.38933567845
3.5782327446
9.40862606605
3.5955281068
9.42796889047
3.60810646027
9.42785447157
)
;

boundaryField
{
    inletfuel
    {
        type            compressible::turbulentMixingLengthDissipationRateInlet;
        mixingLength    0.005;
        phi             phi;
        k               k;
        value           uniform 1630.0935556;
    }
    inletair
    {
        type            compressible::turbulentMixingLengthDissipationRateInlet;
        mixingLength    0.005;
        phi             phi;
        k               k;
        value           uniform 0.0603738353925;
    }
    outlet
    {
        type            inletOutlet;
        inletValue      uniform 200;
        value           nonuniform List<scalar> 
26
(
56.5688691196
56.6483085391
56.8182966317
57.0437463302
57.5284875821
58.6382270338
60.0841244935
61.5848847843
62.6944182819
62.8165570231
61.2886348348
57.5382980045
51.2861669002
42.7303616208
32.6251274829
22.1802073532
12.767336003
5.51651908695
1.27435424125
0.160573087192
0.04651443523
0.0864644492557
0.355340968199
1.67001501042
3.60810646027
9.42785447157
)
;
    }
    axis
    {
        type            empty;
    }
    leftside
    {
        type            compressible::epsilonWallFunction;
        value           nonuniform List<scalar> 
65
(
1.48558325377
2.63773055442
0.230337463905
0.241160484954
0.249776245706
2.63773055442
3.24708289443
3.89073237532
4.34727751447
4.76933227864
5.2497769093
5.71015777517
6.14855412286
6.56759763254
6.9622230949
7.32460578386
7.64748884344
7.92553067863
8.15583720268
8.3379579795
8.47359493062
8.56607920394
8.6193752405
8.63695463664
8.62650163465
8.59537571549
8.54957425935
8.49396855614
8.43256515731
8.36869032287
8.30512362874
8.24419504252
8.18785948238
8.13775269032
8.09523597223
8.06141701462
8.03714940338
8.02309314346
8.01957817943
8.02697697254
8.04590895701
8.07741960696
8.12117527407
8.17588272712
8.23968959291
8.31054808084
8.38645204928
8.46563384775
8.54668677559
8.62858655479
8.71057143399
8.79210287129
8.87285038154
8.95209995655
9.02864076626
9.10113334726
9.16816961119
9.22827501982
9.28057697651
9.32510929381
9.36155222228
9.38933567845
9.40862606605
9.42796889047
9.42785447157
)
;
        Cmu             0.09;
        kappa           0.41;
        E               9.8;
    }
    burnerwall
    {
        type            compressible::epsilonWallFunction;
        value           nonuniform List<scalar> 7(784233.887867 1224173.86387 1449328.31674 3.49602696349 4.92931073199 13.7184609497 60133.3764727);
        Cmu             0.09;
        kappa           0.41;
        E               9.8;
    }
    front
    {
        type            wedge;
    }
    back
    {
        type            wedge;
    }
}


// ************************************************************************* //
