/*--------------------------------*- C++ -*----------------------------------*\
| =========                 |                                                 |
| \\      /  F ield         | OpenFOAM: The Open Source CFD Toolbox           |
|  \\    /   O peration     | Version:  2.2.x                                 |
|   \\  /    A nd           | Web:      www.OpenFOAM.org                      |
|    \\/     M anipulation  |                                                 |
\*---------------------------------------------------------------------------*/
FoamFile
{
    version     2.0;
    format      ascii;
    class       volScalarField;
    location    "1000";
    object      H2;
}
// * * * * * * * * * * * * * * * * * * * * * * * * * * * * * * * * * * * * * //

dimensions      [0 0 0 0 0 0 0];

internalField   nonuniform List<scalar> 
1629
(
0.999999998517
0.999999995782
0.999999984774
0.999999757287
0.999999037819
0.99999487622
0.999981599807
0.999884368338
0.999099468402
0.99901017391
0.990774352901
0.88381392086
0.996413227719
0.975636009195
0.8194603036
0.991431350191
0.955140485018
0.770569947045
0.98300705123
0.929569435015
0.732332253106
0.969791995414
0.899608742833
0.701953932666
0.950239720101
0.866202585002
0.676653738637
0.922974588009
0.830378603675
0.654081833831
0.887377827235
0.792940388864
0.632481878695
0.84407639223
0.754272550888
0.610665780489
0.794940307107
0.714479620488
0.587944551103
0.742496617992
0.673672213186
0.563910998986
0.689185538584
0.63219348417
0.538417149095
0.636903202208
0.590649045557
0.511614505258
0.586905200742
0.549766123524
0.483895082355
0.539924505152
0.510238077414
0.455798542982
0.496309176019
0.472594148071
0.427853782835
0.456141533848
0.437161234976
0.40050109591
0.419347008478
0.404105967122
0.374094961039
0.38576493323
0.373477921122
0.348898996618
0.355190782845
0.345244072005
0.325086896368
0.327389856668
0.319303045922
0.302737160613
0.302108377486
0.295502877793
0.281847599077
0.27909530996
0.273672297668
0.26237402453
0.258115048047
0.253639194407
0.24425184227
0.238953696574
0.235240324833
0.227407438146
0.221414905042
0.218318509491
0.211754784979
0.20531806475
0.202722849192
0.19719797035
0.190504654405
0.188318205586
0.183646196382
0.176837391658
0.174985985942
0.171017033245
0.164198018371
0.162622894018
0.15923662082
0.152485960971
0.151140287419
0.148240104418
0.141612571668
0.14045861698
0.137966204364
0.131497274257
0.130504070852
0.128354765886
0.122068680045
0.121210566988
0.119350530883
0.113263816604
0.112519472897
0.110903787397
0.10502700097
0.104378734097
0.102969971007
0.0973094669625
0.0967426423159
0.0955097019117
0.0900686510205
0.0895712007727
0.0884883099419
0.0832670325906
0.0828290189834
0.081874845467
0.0768708508403
0.0764840815988
0.0756409602377
0.0708489718706
0.0705066695174
0.0697599403252
0.0651719760198
0.0648684925804
0.0642059258745
0.0598116316149
0.0595422039508
0.058953497695
0.0547409304546
0.054501486495
0.0539778580025
0.0499343701731
0.0497213880622
0.0492552682809
0.0453681735995
0.0451785750075
0.0447633677098
0.0410205991717
0.0408516774375
0.0404815895224
0.0368724958958
0.0367218864645
0.0363918510905
0.0329074986165
0.0327731647992
0.0324788009966
0.0291117901925
0.0289919986925
0.0287295524801
0.0254745546875
0.0253678712388
0.0251342083824
0.0219877985985
0.0218930931383
0.0216857167273
0.0186450904104
0.018561539183
0.0183785999157
0.0154428837752
0.0153699384484
0.015210189735
0.0123843119721
0.0123216525243
0.0121843696669
0.00948548481067
0.00943298574077
0.00931793235473
0.00678882814874
0.00674657716869
0.00665407050898
0.0043876077738
0.00435619890247
0.00428774439527
0.00256786634661
0.00255039584559
0.00251258444606
0.0015458703649
0.00153560574686
0.00151351505757
0.282536034549
0.376307734169
0.430991708562
0.459093191008
0.473079296176
0.478830576299
0.479478264364
0.476744098125
0.471492107621
0.464150772103
0.454616922734
0.442763045296
0.428682184557
0.412663891162
0.395154832172
0.376603807007
0.357429637836
0.338036407481
0.318784690643
0.299967947891
0.281786706785
0.26435395541
0.247735461569
0.231968156257
0.217068669836
0.203025336565
0.189801217135
0.177354717154
0.165644825272
0.154632350095
0.144281040691
0.134551840649
0.12540134904
0.116787772954
0.108672624525
0.101020841409
0.0938011097622
0.0869855857866
0.0805490641841
0.0744680096098
0.0687197294995
0.0632816852691
0.058131140344
0.053245433674
0.0486025333376
0.0441814264765
0.0399626266288
0.0359289984419
0.0320660658198
0.0283617295153
0.0248068813752
0.0213952976041
0.0181223770607
0.0149863043751
0.0119917468697
0.00915630933644
0.00652412093501
0.00419198554305
0.00245989717158
0.0014827460033
5.6351728825e-09
2.44727859817e-09
1.32762680879e-09
5.99256927961e-10
1.9872230521e-10
4.9717940313e-11
9.72588497947e-12
1.52580718619e-12
1.94931403943e-13
2.04993665798e-14
1.78876895895e-15
1.30400983605e-16
7.99780571341e-18
4.14951966379e-19
1.84160129781e-20
7.00222868101e-22
2.3479008475e-23
6.77683626046e-25
1.79755426091e-26
2.42214968575e-28
1.93808583755e-06
3.4694332731e-07
6.8051298996e-08
1.64861897636e-08
3.73746387058e-09
7.11180671692e-10
1.10904765868e-10
1.42792563906e-11
1.53384335156e-12
1.38718636779e-13
1.06354072516e-14
6.95288143589e-16
3.89817696946e-17
1.88342819796e-18
7.91571704457e-20
2.90561250929e-21
9.53520374088e-23
2.77317266465e-24
7.35776210643e-26
9.9629124463e-28
0.000304742650287
2.37896597605e-05
1.77876820169e-06
2.26441021236e-07
3.18630098531e-08
4.54831032372e-09
5.8731379544e-10
6.56274643801e-11
6.29165388649e-12
5.17683298601e-13
3.66260124499e-14
2.23463954616e-15
1.18031335173e-16
5.42566741306e-18
2.18813155197e-19
7.81697725725e-21
2.5185460564e-22
7.41461568327e-24
1.99445909738e-25
2.68600353418e-27
0.0211936505483
0.000172860708807
1.4331609903e-05
1.17710928398e-06
1.52522774838e-07
1.97206861274e-08
2.46783352569e-09
2.7150460087e-10
2.55290163679e-11
2.05089340624e-12
1.41257387244e-13
8.37687660994e-15
4.29845017567e-16
1.92233557217e-17
7.5639341118e-19
2.65789593925e-20
8.50517188582e-22
2.55811985764e-23
7.22581153655e-25
1.30849304342e-26
0.0517848972395
0.000301603500941
1.48774018096e-05
2.15842568735e-06
2.70078252518e-07
4.31194375991e-08
6.24551933058e-09
7.81866158649e-10
8.08251021275e-11
6.92664410751e-12
4.98317353319e-13
3.04272060301e-14
1.59187147419e-15
7.21427332059e-17
2.86676808791e-18
1.0190218408e-19
3.31453838437e-21
1.03509151649e-22
3.11323890413e-24
7.5956063115e-26
0.0862383633492
0.000886595071845
1.87057662381e-05
2.13036450196e-06
4.2579242082e-07
6.34463010938e-08
1.11666755899e-08
1.6574804378e-09
1.97962011232e-10
1.90065660394e-11
1.49419072674e-12
9.78570727656e-14
5.4159726135e-15
2.57112713457e-16
1.0628471367e-17
3.91940360774e-19
1.32242968616e-20
4.33148287241e-22
1.38134316608e-23
4.04519610533e-25
0.118373701994
0.00237237631103
2.43850226976e-05
1.82186405033e-06
4.69880287477e-07
8.08636146684e-08
1.66370681347e-08
2.87920309529e-09
3.99133611554e-10
4.36225797109e-11
3.82451468146e-12
2.74572346592e-13
1.64298515281e-14
8.34220486911e-16
3.65702203526e-17
1.42228039715e-18
5.04019125059e-20
1.73627498712e-21
5.80270088661e-23
1.85577534345e-24
0.14858297535
0.00902503638983
6.9196406661e-05
2.53711791501e-06
5.1291916479e-07
9.56284022438e-08
2.22301000844e-08
4.38441498864e-09
6.98284870021e-10
8.69412695416e-11
8.55650355928e-12
6.79899017539e-13
4.44792626529e-14
2.44358300052e-15
1.14865718704e-16
4.75551838295e-18
1.7810094636e-19
6.44155815416e-21
2.22692770972e-22
7.27173191033e-24
0.175676060601
0.0207503844787
0.000224948945202
4.9211297315e-06
6.2623548708e-07
1.30281780494e-07
2.68653721038e-08
6.04546027431e-09
1.09742163836e-09
1.55090865565e-10
1.71400211463e-11
1.51193689736e-12
1.08652250306e-13
6.49464592509e-15
3.2922147216e-16
1.45743572173e-17
5.78158310203e-19
2.18744673853e-20
7.7358672966e-22
2.47324452233e-23
0.199793665622
0.0337809243441
0.000565420166649
8.67853444464e-06
8.21375905405e-07
1.70126129171e-07
3.27417473327e-08
7.93704268666e-09
1.60348019327e-09
2.54407976381e-10
3.14256101219e-11
3.07315990473e-12
2.42740285375e-13
1.58137923378e-14
8.66224159976e-16
4.10591365779e-17
1.72509223355e-18
6.79968576558e-20
2.43860507307e-21
7.4444755148e-23
0.221294954369
0.0479885400065
0.00124627746757
1.38994957445e-05
1.05012970055e-06
2.1438522694e-07
3.97974541387e-08
1.01191472648e-08
2.22725785705e-09
3.91655549156e-10
5.36924746734e-11
5.79860256291e-12
5.02458170749e-13
3.56473886571e-14
2.10944873673e-15
1.06994169632e-16
4.75428257792e-18
1.94479274279e-19
7.02700010452e-21
2.01774206366e-22
0.240193901658
0.0631846977986
0.00242594058006
2.40323945929e-05
1.3657065944e-06
2.65382523422e-07
4.82517757684e-08
1.26493587852e-08
2.98193257028e-09
5.74072828399e-10
8.66745819274e-11
1.02865344472e-11
9.74658415145e-13
7.51349780296e-14
4.79518177473e-15
2.5980480547e-16
1.21840038439e-17
5.1554589335e-19
1.86812456168e-20
5.00490388172e-22
0.256589151601
0.0790471867758
0.00498917334045
6.50052090435e-05
2.28862657554e-06
3.43311203685e-07
6.85347310666e-08
1.51886882464e-08
3.85491374772e-09
8.07686101881e-10
1.33498798992e-10
1.73286867395e-11
1.78878436548e-12
1.49395041495e-13
1.02581283486e-14
5.92317869437e-16
2.92499552699e-17
1.27697707311e-18
4.62702311492e-20
1.15307676459e-21
0.269150893891
0.0965676938645
0.012420937265
0.000226361841248
5.05712751515e-06
5.33373623665e-07
9.96022281214e-08
1.91423092622e-08
4.95325359527e-09
1.10694851651e-09
1.98307265926e-10
2.79823748389e-11
3.13311661902e-12
2.82507343801e-13
2.08101342754e-14
1.277283271e-15
6.62695190836e-17
2.97960446674e-18
1.07799441688e-19
2.50009635914e-21
0.277823480809
0.114306339767
0.0219397655102
0.000607323155882
1.03830716845e-05
8.77080751842e-07
1.50540723867e-07
2.53838996926e-08
6.45013271e-09
1.50042789139e-09
2.87378657269e-10
4.3724234677e-11
5.28109561644e-12
5.11978693441e-13
4.0325016016e-14
2.62378927098e-15
1.42723773702e-16
6.60096909818e-18
2.38375304102e-19
5.1607487049e-21
0.282998770203
0.130941775791
0.0329232709034
0.00138357803939
1.97036892575e-05
1.38428254434e-06
2.28759547568e-07
3.52080076715e-08
8.60480301278e-09
2.03667706078e-09
4.10660458221e-10
6.67148902595e-11
8.63508868979e-12
8.95721736485e-13
7.51563448158e-14
5.1692502401e-15
2.94223405234e-16
1.39877808416e-17
5.04470321531e-19
1.02456311823e-20
0.285035212971
0.145581586504
0.0447520972438
0.00272267494376
3.98256741677e-05
2.20562049893e-06
3.3748706916e-07
5.96095121891e-08
1.14471452975e-08
2.7660163365e-09
5.82111361958e-10
1.00116988259e-10
1.37934282496e-11
1.52305741904e-12
1.3560018776e-13
9.83028225702e-15
5.84372863415e-16
2.85475976454e-17
1.0294501041e-18
1.97376958626e-20
0.284309460526
0.157774113863
0.0569845591774
0.00467861580676
9.71654754421e-05
3.87394929049e-06
5.13058233292e-07
9.53839822037e-08
1.61867486058e-08
3.83951314638e-09
8.27637239753e-10
1.48978683644e-10
2.16768325326e-11
2.53331545597e-12
2.38304699296e-13
1.81541433574e-14
1.12510284955e-15
5.6470235473e-17
2.0394148922e-18
3.71835598795e-20
0.281070800332
0.166705491814
0.0698821479146
0.0112168238037
0.000334633270354
9.26730466541e-06
9.08426066327e-07
1.57626899673e-07
2.40758265329e-08
5.50232687962e-09
1.19272715628e-09
2.21751129625e-10
3.376335267e-11
4.14892224981e-12
4.10406993218e-13
3.27484315392e-14
2.11199185508e-15
1.08900535133e-16
3.94607816482e-18
6.89643618412e-20
0.275622399323
0.172779847963
0.0818430918991
0.0193390500395
0.000893972855574
2.11079252222e-05
1.651054937e-06
2.67237734421e-07
3.75133816854e-08
8.17871061273e-09
1.75668734324e-09
3.32958064577e-10
5.2519420706e-11
6.73572178704e-12
6.968904258e-13
5.80364425223e-14
3.8867717915e-15
2.05848438261e-16
7.4979829233e-18
1.26664190424e-19
0.268342825279
0.176383217645
0.0922108068006
0.0280331401
0.0019343836883
4.47980776829e-05
2.87036642553e-06
4.29870464971e-07
7.19075052315e-08
1.21182975533e-08
2.61726055427e-09
5.04884020659e-10
8.19876665567e-11
1.09031413494e-11
1.17349545616e-12
1.01601096869e-13
7.04963875905e-15
3.83312928939e-16
1.40591789804e-17
2.31523726909e-19
0.259640803329
0.177864433926
0.100612098824
0.0368314604973
0.00354630647443
9.13440363278e-05
4.88902767074e-06
6.75544454813e-07
1.23109757544e-07
1.88981387771e-08
4.00332414459e-09
7.77897655286e-10
1.29105335702e-10
1.76896725257e-11
1.96999107412e-12
1.76612754382e-13
1.26638938581e-14
7.06418700503e-16
2.61282203009e-17
4.22790685341e-19
0.249908521318
0.177532172547
0.106911163681
0.0454660569362
0.00600629778978
0.000220721192331
9.44176670523e-06
1.08268481134e-06
2.00166632184e-07
2.95225101319e-08
6.19810120996e-09
1.21349590535e-09
2.05242528188e-10
2.8852742189e-11
3.31015122366e-12
3.06170008279e-13
2.26300801242e-14
1.2938235196e-15
4.83127719875e-17
7.73846351915e-19
0.23947557947
0.175672542085
0.111434227622
0.0534597409693
0.0113521044632
0.000602017619444
2.10234945374e-05
1.85917958499e-06
3.23477079319e-07
4.60530473666e-08
9.6072084054e-09
1.90149820978e-09
3.28208623101e-10
4.72976072761e-11
5.57731545644e-12
5.30878250384e-13
4.03646237893e-14
2.36309586453e-15
8.91678660839e-17
1.42293722679e-18
0.228596566782
0.172513813726
0.114337346987
0.0602581229139
0.0173243895256
0.00134144267297
4.52602775797e-05
3.2525715234e-06
5.05005376592e-07
8.64686389999e-08
1.43693513429e-08
2.93689417101e-09
5.22769807382e-10
7.75796984121e-11
9.41300555688e-12
9.21540159649e-13
7.20062639234e-14
4.31441646949e-15
1.64659868066e-16
2.63271189708e-18
0.21748822183
0.168292874188
0.11579348972
0.0656234402397
0.0232856994212
0.00247440222221
9.33061712043e-05
5.71707112696e-06
7.93095915164e-07
1.45760398352e-07
2.2335787828e-08
4.56730890474e-09
8.32332390168e-10
1.27185601182e-10
1.58926105263e-11
1.60093887807e-12
1.2854756527e-13
7.88362941416e-15
3.04658253983e-16
4.90503668448e-18
0.206339029628
0.163250582072
0.116018016526
0.0696698001134
0.0288487863954
0.00392861136503
0.00018662849597
1.01861819778e-05
1.23056180787e-06
2.30946585772e-07
3.43617318387e-08
7.0680959348e-09
1.31867668867e-09
2.0770393608e-10
2.67703487045e-11
2.7784472682e-12
2.29466418855e-13
1.4416068435e-14
5.64932436092e-16
9.20064048067e-18
0.195309340129
0.15761994839
0.115253148427
0.0726396550871
0.0338019300387
0.00559493588437
0.000358226459532
1.78680924167e-05
1.83272159281e-06
3.42833698727e-07
5.10124617593e-08
1.06763507191e-08
2.05337149558e-09
3.35125911983e-10
4.47331225075e-11
4.79815336201e-12
4.08499190728e-13
2.63369486177e-14
1.04874188924e-15
1.73521026354e-17
0.184510458236
0.151573986406
0.113668868816
0.0746641049449
0.0381546115983
0.00907842538571
0.000766744793182
3.46544179942e-05
2.84659527977e-06
4.80377284445e-07
8.64689680023e-08
1.51099927454e-08
3.07361993309e-09
5.27095564078e-10
7.3497015728e-11
8.19414165832e-12
7.22034178557e-13
4.79168504567e-14
1.94425211475e-15
3.28197122634e-17
0.174005096864
0.145223853771
0.111362444674
0.0757607609354
0.0416020293862
0.0128819264734
0.00144057418104
6.85468205019e-05
4.71039828076e-06
6.90373350911e-07
1.32842764716e-07
2.18144688562e-08
4.5361312047e-09
8.12074795603e-10
1.18504986016e-10
1.37852285766e-11
1.26199142981e-12
8.64984687752e-14
3.58754961082e-15
6.20370858902e-17
0.163837095363
0.138672651435
0.1084521306
0.0760287672762
0.0442117135133
0.0164256301678
0.00232381240857
0.000131870004804
8.09731882138e-06
1.01971738136e-06
1.96612018153e-07
3.1329503693e-08
6.61627886186e-09
1.22956046963e-09
1.87588082273e-10
2.28048911257e-11
2.17476745015e-12
1.54404114017e-13
6.56539524148e-15
1.16732735462e-16
0.154039828379
0.132018435875
0.105066405163
0.0755984105548
0.0460848970157
0.0195110786374
0.00332169122088
0.000240634905886
1.40122090994e-05
1.52018606346e-06
2.84453037917e-07
4.44342979101e-08
9.50431471757e-09
1.82795902912e-09
2.91285106513e-10
3.70367818033e-11
3.68602839821e-12
2.71718468716e-13
1.18748418456e-14
2.17774167076e-16
0.144638382551
0.125349415443
0.101327642526
0.0745975452946
0.0473181430314
0.0220801890509
0.00434524502924
0.000407965136019
2.39196836662e-05
2.24915424671e-06
3.89879672478e-07
7.13511936875e-08
1.29459952219e-08
2.62627412004e-09
4.40411906976e-10
5.87961500629e-11
6.12376767493e-12
4.69857818862e-13
2.11527057582e-14
4.01185602825e-16
0.135650694465
0.118741563147
0.0973457407155
0.07314345644
0.0480039710901
0.0241441976428
0.0053370387282
0.000636381852533
3.94088017967e-05
3.2551047625e-06
5.20563899116e-07
1.0306059595e-07
1.7804759894e-08
3.70519244823e-09
6.50014365084e-10
9.11241818241e-11
9.94897789037e-12
7.96149634082e-13
3.69903184052e-14
7.27127617762e-16
0.127080404653
0.112244736578
0.0931956810963
0.0713126256402
0.0482014631414
0.0257738661477
0.00704054809176
0.000999874127132
6.67294595048e-05
4.8266379114e-06
6.85256230815e-07
1.39778630831e-07
2.39858981769e-08
5.11817548703e-09
9.3684128915e-10
1.37836234649e-10
1.57885961412e-11
1.31954974437e-12
6.33521638814e-14
1.292874545e-15
0.118916633089
0.105883853813
0.0889217229251
0.0691507315456
0.0479435391924
0.0269685515167
0.00882942103313
0.00147412207191
0.000114129093361
7.52156387792e-06
9.14834064029e-07
1.83561697744e-07
3.14913235021e-08
6.905127169e-09
1.31829324477e-09
2.03533464441e-10
2.44708904316e-11
2.13769951893e-12
1.06122980591e-13
2.25123436839e-15
0.111144062712
0.0996769504178
0.0845653493873
0.0667106729832
0.0472819794412
0.0277461766978
0.0104078810648
0.00199976113762
0.000188101185747
1.20564227446e-05
1.25345240893e-06
2.38006820883e-07
4.05190180882e-08
9.10294010046e-09
1.81137684571e-09
2.93483278595e-10
3.70508559844e-11
3.38467797178e-12
1.73778178288e-13
3.83607731842e-15
0.103746560118
0.0936392387463
0.0801671891595
0.0640487949096
0.0462759872167
0.0281405326055
0.0116863974895
0.00251983282167
0.000292762701402
1.94088528422e-05
1.7587585695e-06
3.0095549173e-07
5.74581317429e-08
1.14260495128e-08
2.40846511922e-09
4.11927264615e-10
5.47407567158e-11
5.23520992563e-12
2.78040011811e-13
6.39141900366e-15
0.0967081881693
0.0877831248433
0.0757640904691
0.06121785798
0.0449822592248
0.0281921462434
0.012651957217
0.00300224323899
0.000423510207705
3.07081348595e-05
2.50140831677e-06
3.8317479544e-07
7.66174628641e-08
1.44952240245e-08
3.14798965205e-09
5.65054877368e-10
7.89930658013e-11
7.91088781936e-12
4.34494569571e-13
1.04042616559e-14
0.0900139172925
0.0821183631214
0.0713877477069
0.0582640266014
0.0434510501072
0.0279414182158
0.0133196359504
0.00343096824417
0.00056991480266
4.72023107666e-05
3.57587954205e-06
4.87813593049e-07
9.83432964306e-08
1.82456927637e-08
4.05395666774e-09
7.59687415401e-10
1.11500522839e-10
1.16846993156e-11
6.63070696045e-13
1.65351274108e-14
0.08364972078
0.0766521594957
0.0670644259725
0.055226265672
0.0417253730769
0.0274256094761
0.0137133707535
0.00379552224867
0.000721314473802
7.00360998319e-05
5.11473161258e-06
6.18036841797e-07
1.22645756762e-07
2.25865588913e-08
5.13485153907e-09
1.00198176581e-09
1.54119355078e-10
1.688069072e-11
9.88229251097e-13
2.56445631397e-14
0.0776020964047
0.0713890269921
0.0628149948936
0.0521365363662
0.0398412338534
0.0266776485764
0.0138577994207
0.00408825830362
0.000868736077403
9.96235664652e-05
7.30554767805e-06
7.80175322684e-07
1.49363354472e-07
2.74246839882e-08
6.38363949719e-09
1.29617412373e-09
2.08719313579e-10
2.38658306285e-11
1.43866676415e-12
3.88089970558e-14
0.0718574437796
0.0663307467263
0.0586554950943
0.0490209831494
0.0378292882315
0.0257273063575
0.0137771878181
0.00430341393078
0.00100261476554
0.000136691204532
1.04863745318e-05
9.91881559453e-07
1.75735638077e-07
3.54900312575e-08
7.60817638595e-09
1.63217525662e-09
2.76338447738e-10
3.30044050207e-11
2.04560238652e-12
5.73083706005e-14
0.0664015415465
0.061476497868
0.0545980595156
0.0459017404537
0.0357175169517
0.0246043967061
0.0134990333379
0.00443953579729
0.00111921457436
0.000179111775298
1.50433625596e-05
1.28281358641e-06
2.05959036788e-07
4.36245248182e-08
9.0921637885e-09
2.02063155322e-09
3.58453648985e-10
4.46687994401e-11
2.84123851545e-12
8.25937936928e-14
0.0612190225121
0.0568226978256
0.0506511349282
0.0427974309777
0.0335317080757
0.0233386039313
0.0130522861509
0.00449887267058
0.00121651179625
0.000223599901914
2.13587235519e-05
1.69878443468e-06
2.41735965887e-07
5.18805054338e-08
1.0766109142e-08
2.46473307371e-09
4.56458050698e-10
5.92252380505e-11
3.85691471916e-12
1.16240961202e-13
0.0562930842974
0.0523627976595
0.0468191850387
0.0397223839713
0.0312934450358
0.0219547887472
0.0124659985567
0.00448575217452
0.00129212092626
0.000266830597784
2.97202735578e-05
2.31301672596e-06
2.86865890857e-07
6.0444552269e-08
1.25775894874e-08
2.96253526978e-09
5.71352694581e-10
7.70091206721e-11
5.12113863673e-12
1.5990124444e-13
0.0516058799724
0.0480878439709
0.0431033682212
0.0366874511864
0.0290215203783
0.020476990936
0.0117662478944
0.00440555277631
0.00134364280323
0.000304981041918
4.06581819812e-05
3.25384612649e-06
3.49476759873e-07
6.97699226035e-08
1.45000101347e-08
3.50903319556e-09
7.0352065677e-10
9.82851393643e-11
6.65677456079e-12
2.15230769814e-13
0.0471392597757
0.0439874488956
0.0395027277367
0.0337015449602
0.0267342774387
0.0189324288298
0.010974367534
0.0042642775482
0.00137002648798
0.000337228355134
5.31657999069e-05
4.63416270655e-06
4.41067439859e-07
8.05431888294e-08
1.65332764635e-08
4.09750944845e-09
8.52532296752e-10
1.23192108046e-10
8.47698060112e-12
2.83761646989e-13
0.0428752623524
0.0400502048498
0.0360141507918
0.0307704169067
0.02444553135
0.0173428943594
0.0101103580593
0.00406818468392
0.00137111316687
0.000362683041984
6.60445763293e-05
6.53813162518e-06
5.79483150938e-07
9.39286547632e-08
1.87268820714e-08
4.72281194251e-09
1.01732530635e-09
1.51722797526e-10
1.05834994945e-11
3.66842715053e-13
0.0387967878799
0.036264433069
0.0326329765615
0.027896907663
0.0221646085383
0.0157269101166
0.00919202480327
0.00382377157663
0.00134745993259
0.000380365163034
7.78566913762e-05
9.10095665065e-06
7.95511651515e-07
1.10918755012e-07
2.23910977764e-08
5.31143235732e-09
1.19196264119e-09
1.83498735868e-10
1.29595422627e-11
4.65424269941e-13
0.0348887207996
0.0326197700659
0.0293552479622
0.0250844891055
0.0199057933341
0.0140968228898
0.00823430215328
0.00353763721646
0.00130027080057
0.000389485455666
8.76595637802e-05
1.22522837881e-05
1.1214443898e-06
1.35916475147e-07
2.64320659595e-08
6.00355652342e-09
1.37916848859e-09
2.1816098396e-10
1.55717505781e-11
5.79855567473e-13
0.0311383866973
0.0291076839322
0.0261779825223
0.0223367403555
0.0176788598561
0.0124648986183
0.00725021619809
0.00321609786953
0.00123108849676
0.000389644352013
9.51653665501e-05
1.5614073439e-05
1.5720316414e-06
1.72508999699e-07
3.11360616335e-08
6.78820235541e-09
1.57903986941e-09
2.55201983758e-10
1.83701556357e-11
7.09691456938e-13
0.027535255071
0.0257210058258
0.0230986506339
0.0196584829202
0.0154892044448
0.0108400820854
0.00624947869101
0.00286424723518
0.00114126082685
0.00038060973026
0.000100093318492
1.87923641065e-05
2.13218024256e-06
2.24818087173e-07
3.68674447798e-08
7.6644147884e-09
1.79020968817e-09
2.93980363585e-10
2.12988594002e-11
8.54131668408e-13
0.0240718150346
0.02245581399
0.0201182834595
0.0170518786165
0.0133421518215
0.00923014651541
0.00524024668369
0.00248666908948
0.00103215645225
0.000362275462996
0.000102077215395
2.13378561521e-05
2.82309045723e-06
2.98768303566e-07
4.41332870246e-08
8.63997349687e-09
2.00966116334e-09
3.33589455646e-10
2.42900780513e-11
1.01159358529e-12
0.0207434993303
0.0193101274574
0.0172365911671
0.0145189741
0.011241674583
0.00764017039611
0.00422774094415
0.00208680795787
0.000904800798749
0.000334466367346
0.00010071237751
2.30683771398e-05
3.55203642035e-06
3.92914335174e-07
5.31282585391e-08
9.70529958115e-09
2.23023679082e-09
3.72511276419e-10
2.72365314288e-11
1.17856814928e-12
0.0175475283793
0.0162847218124
0.0144603775917
0.0120775455319
0.00922789493106
0.00616109619204
0.00342954577524
0.00173390204072
0.000778587821536
0.000301480662856
9.65090861667e-05
2.39898878571e-05
4.22209045659e-06
4.98571601877e-07
6.36643230672e-08
1.08297505948e-08
2.44171200388e-09
4.08855786863e-10
3.00159005977e-11
1.3521276116e-12
0.0144839808005
0.0133832215828
0.0117978831157
0.00974051453036
0.00731393052853
0.00478426169988
0.00272899975571
0.00141804736376
0.000658708412878
0.000266376428435
9.02564164598e-05
2.41958650183e-05
4.75504049536e-06
6.18274523032e-07
7.54117044862e-08
1.23276646545e-08
2.61803588594e-09
4.39987321346e-10
3.24940808673e-11
1.52891501621e-12
0.0115593579124
0.0106157836365
0.00926420848989
0.00752905528819
0.00552836103648
0.00355069711084
0.00209764172053
0.00112846821674
0.000544338125186
0.000230113518889
8.24125642625e-05
2.37467323451e-05
5.12810586191e-06
7.46892786353e-07
8.84073617784e-08
1.36895281321e-08
2.77583311256e-09
4.64384303259e-10
3.45396794056e-11
1.69993603987e-12
0.00879339911837
0.00800773332732
0.00689435125006
0.00549443243405
0.00395091869998
0.00259364709173
0.00157671427208
0.000876819135523
0.000439297593783
0.000194179027752
7.3457141858e-05
2.27055869316e-05
5.35512743243e-06
8.74304920524e-07
1.01770768229e-07
1.48312427108e-08
2.89314786742e-09
4.79873560521e-10
3.61946973522e-11
1.85942751973e-12
0.00623279049807
0.00561359174911
0.00475690284066
0.00372792215555
0.00270700981897
0.00183520829122
0.00115258997798
0.000663755164781
0.000345753544386
0.000159875686829
6.38666232136e-05
2.11493837725e-05
5.44189196299e-06
9.90487623638e-07
1.19054223709e-07
1.58444239081e-08
2.96028797139e-09
4.85103123447e-10
3.73291029254e-11
1.99991407385e-12
0.003978962889
0.00354716994804
0.00298725353897
0.00238874691339
0.00179425446729
0.00125847979196
0.000818408269846
0.00048899173732
0.000265197276363
0.000128381414153
5.41593169128e-05
1.91973726675e-05
5.39046276172e-06
1.09396329676e-06
1.41447527801e-07
1.69087512446e-08
2.98376574124e-09
4.80245740966e-10
3.78494984118e-11
2.11368206468e-12
0.00234363654101
0.00211982279936
0.00183120268755
0.00150186785004
0.0011612323507
0.000840636122216
0.000565573055745
0.000350560234763
0.000197961592144
0.000100326337495
4.46736342533e-05
1.69296183158e-05
5.18467921265e-06
1.17720573279e-06
1.69760028145e-07
1.85540343298e-08
2.9959148576e-09
4.67812712566e-10
3.77893793525e-11
2.19673868211e-12
0.00141512794807
0.00129151830781
0.00113331276632
0.000948845809526
0.00075229246316
0.000560665791664
0.000389758543393
0.00025054810615
0.000147366320255
7.82250292551e-05
3.67726178307e-05
1.48892921578e-05
4.96712086668e-06
1.26454609892e-06
2.09540092604e-07
2.22146162024e-08
3.07757317965e-09
4.53601363247e-10
3.74042873502e-11
2.2547048394e-12
3.62505927871e-27
2.08180420773e-27
2.01004697679e-26
7.04153254492e-27
1.01113864526e-25
2.50646685159e-26
4.23528438027e-25
9.8981799584e-26
1.43397263654e-24
2.60840541938e-25
4.13365384937e-24
6.03670564735e-25
1.04876672806e-23
1.26317378915e-24
2.39536918339e-23
2.43690977432e-24
5.02773180658e-23
4.42066642762e-24
9.87157757866e-23
7.66207611018e-24
1.8403295018e-22
1.28486736141e-23
3.2995590745e-22
2.10606559319e-23
5.75268542862e-22
3.40352200045e-23
9.84727157995e-22
5.46349001473e-23
1.66906060734e-21
8.77022151008e-23
2.82257102591e-21
1.41663489713e-22
4.79668621022e-21
2.31643589768e-22
8.28979172016e-21
3.87507059508e-22
1.48231961102e-20
6.77474811453e-22
2.6860720743e-20
1.21380923202e-21
4.91065295179e-20
2.20345399379e-21
9.05741528556e-20
4.0448080988e-21
1.68655008838e-19
7.50959600388e-21
3.17066007398e-19
1.41014235032e-20
6.01187467826e-19
2.67553916349e-20
1.14705579788e-18
5.11785172915e-20
2.1948920654e-18
9.83627416828e-20
4.19530240845e-18
1.89179201679e-19
7.97631163548e-18
3.6251279759e-19
1.50203485748e-17
6.89065678132e-19
2.79038688018e-17
1.29381003339e-18
5.09722717198e-17
2.39129392222e-18
9.13526736944e-17
4.33978975544e-18
1.60451398274e-16
7.72321068754e-18
2.78537073227e-16
1.35940916359e-17
4.73094302064e-16
2.34801584552e-17
7.834603751e-16
3.95424792287e-17
1.26330003022e-15
6.47931799847e-17
1.98266362663e-15
1.03230171652e-16
3.02884156243e-15
1.59916602079e-16
4.50594811574e-15
2.40989910677e-16
6.53359748027e-15
3.53621119461e-16
9.24552416398e-15
5.05976057929e-16
1.27869482299e-14
7.07112788522e-16
1.73075059087e-14
9.66642114872e-16
2.29588621757e-14
1.29459483596e-15
2.98784094865e-14
1.70057764759e-15
3.81729191545e-14
2.19261274656e-15
4.78913712765e-14
2.77561667502e-15
5.90642452427e-14
3.45326998536e-15
7.16421301363e-14
4.22481204939e-15
8.5430038634e-14
5.08340178992e-15
1.00223357009e-13
6.2700836679e-15
1.16205563009e-13
1.42082081398e-14
1.31941621755e-13
1.78331938291e-14
1.47252050041e-13
2.06871049952e-14
1.61541684765e-13
2.33614423975e-14
1.74089907264e-13
2.58693465153e-14
1.84360098888e-13
2.81234099719e-14
1.92095729211e-13
3.00659719756e-14
)
;

boundaryField
{
    inletfuel
    {
        type            fixedValue;
        value           uniform 1;
    }
    inletair
    {
        type            fixedValue;
        value           uniform 0;
    }
    outlet
    {
        type            zeroGradient;
    }
    axis
    {
        type            empty;
    }
    leftside
    {
        type            zeroGradient;
    }
    burnerwall
    {
        type            zeroGradient;
    }
    front
    {
        type            wedge;
    }
    back
    {
        type            wedge;
    }
}


// ************************************************************************* //
