/*--------------------------------*- C++ -*----------------------------------*\
| =========                 |                                                 |
| \\      /  F ield         | OpenFOAM: The Open Source CFD Toolbox           |
|  \\    /   O peration     | Version:  2.4.x                                 |
|   \\  /    A nd           | Web:      www.OpenFOAM.org                      |
|    \\/     M anipulation  |                                                 |
\*---------------------------------------------------------------------------*/
FoamFile
{
    version     2.0;
    format      ascii;
    class       volScalarField;
    location    "1000";
    object      H2;
}
// * * * * * * * * * * * * * * * * * * * * * * * * * * * * * * * * * * * * * //

dimensions      [0 0 0 0 0 0 0];

internalField   nonuniform List<scalar> 
1629
(
0.493328808417
0.937527159193
0.996102526471
0.525384115048
0.933807583616
0.994582472538
0.719561397817
0.962900480203
0.995148248251
0.85739044561
0.968667343051
0.892247465688
0.918772157461
0.957995104465
0.828416682995
0.931996117055
0.936089380126
0.778717026699
0.921518990987
0.907387546309
0.739667727407
0.90179202395
0.87566591182
0.708905525101
0.880201821064
0.843820535339
0.684229841251
0.859625088564
0.813676320707
0.663877721024
0.840155376208
0.785998657232
0.646575943676
0.820608245859
0.760677788087
0.631317348728
0.799671908406
0.736977238115
0.617109306735
0.776357633438
0.713784900292
0.603020494923
0.749968591008
0.689947979822
0.588220976554
0.719782328365
0.664163116986
0.571679843647
0.684527343807
0.634722148314
0.551945718426
0.642663927447
0.599802887162
0.527382764206
0.593387275155
0.558109725001
0.496680184124
0.537422155382
0.509705843933
0.459635956553
0.477637593883
0.45685607829
0.417845457535
0.418601379381
0.403603748367
0.374423541465
0.364689379331
0.354065870944
0.332778746073
0.318511387092
0.310925538603
0.295407548541
0.280656702049
0.275049361743
0.263441345953
0.250312322021
0.245947222463
0.236861804756
0.226010391433
0.222427224343
0.214952846052
0.206185192898
0.203122586952
0.19672388996
0.189520139451
0.186840526864
0.181230203119
0.175096919087
0.172727133649
0.167752444658
0.162370165739
0.160262245676
0.155825633107
0.151044004771
0.14915632024
0.145175065586
0.140942042978
0.139235610481
0.135632231947
0.131919623213
0.130360658686
0.127067121735
0.123827518919
0.122390153779
0.119353364324
0.116509908905
0.115176891318
0.112360601248
0.109811616115
0.108573287296
0.10595650054
0.103585472769
0.102437758357
0.100011041636
0.0977017717548
0.0966439391948
0.0944049694371
0.0920566125316
0.0910894991047
0.0890394326799
0.0865734289601
0.0856982544214
0.0838392700265
0.0812001356248
0.0804175973371
0.078751012967
0.0759053150271
0.0752149885895
0.0737399859434
0.0706738025575
0.0700738684275
0.0687868716856
0.065502010397
0.0649892329151
0.0638838163739
0.0603934973787
0.0599633572938
0.0590304892269
0.0553559165814
0.0550028202719
0.0542312722662
0.0503991797873
0.0501166841662
0.0494934818323
0.0455341426629
0.0453151408416
0.0448259313037
0.0407720151796
0.040608898478
0.0402382743628
0.0361242785601
0.0360090830887
0.0357408597755
0.0316018676838
0.0315264722485
0.0313440723364
0.0272135918666
0.0271699381725
0.0270568235406
0.0229648730219
0.0229450761919
0.0228849672952
0.0188591853805
0.0188554048644
0.0188319906187
0.0149019390967
0.0149065684133
0.0149038771264
0.0110997767942
0.0111058164587
0.0111089960926
0.00746050403628
0.0074621181723
0.00745865645158
0.0040124039368
0.00400610218347
0.00398839198048
0.00101540267657
0.00100767589411
0.000990597499153
0.000201468025003
0.000200462265026
0.000198291391232
4.46322549692e-05
4.43959683701e-05
4.38997167925e-05
1.07996470803e-05
1.07230981144e-05
1.05653946096e-05
0.298113449523
0.390231361138
0.443917312825
0.471555912789
0.485817416095
0.492299913637
0.494337110981
0.494041956296
0.492571272885
0.490243901058
0.486797010788
0.481949716449
0.475121880062
0.465242788104
0.450979976697
0.431158766304
0.405414899808
0.374756340521
0.341433480095
0.308116597466
0.277003520856
0.249378234164
0.225640974286
0.205558446265
0.188553097529
0.17396496098
0.16123130855
0.149949013484
0.139855964261
0.13078480753
0.122612781666
0.115228959965
0.108522288227
0.102378940156
0.0966835095763
0.0913259175116
0.086211738515
0.081267036243
0.0764371256262
0.0716844012291
0.0669857606524
0.0623294216607
0.057711463472
0.0531332404715
0.0485996552809
0.0441176079358
0.0396952694676
0.0353418435163
0.0310670427869
0.0268796608551
0.0227857036781
0.0187883374973
0.0148936584515
0.0111112192852
0.00745527612557
0.00396771428557
0.000972723621137
0.00019618374556
4.33638361568e-05
1.03790712407e-05
1.84422815177e-08
7.26312452027e-09
3.85467711817e-09
1.8667283054e-09
6.7842527889e-10
1.84012277322e-10
3.85478724993e-11
6.41623990831e-12
8.64409554669e-13
9.54300102842e-14
8.71045176455e-15
6.61905265587e-16
4.21653039026e-17
2.26351003055e-18
1.03521807774e-19
4.04010255196e-21
1.38510267552e-22
4.07425124811e-24
1.09996090936e-25
1.65564108407e-27
3.45997987428e-06
8.46188473503e-07
1.96971437745e-07
5.26470359682e-08
1.28694232045e-08
2.60861958078e-09
4.30443379958e-10
5.83673327859e-11
6.58809539125e-12
6.25075321366e-13
5.01837531644e-14
3.42549704148e-15
1.99744105702e-16
9.99037521669e-18
4.32480064597e-19
1.62724466348e-20
5.44976968377e-22
1.61171619813e-23
4.34607752998e-25
6.53932162167e-27
0.000303409719044
4.96089705745e-05
5.31161462058e-06
8.06019667942e-07
1.13257788931e-07
1.6036373459e-08
2.12794929962e-09
2.49352899339e-10
2.52774946588e-11
2.20288889979e-12
1.64699916862e-13
1.05677659525e-14
5.83319821603e-16
2.78275091042e-17
1.15673485509e-18
4.23319217947e-20
1.39016632906e-21
4.1551960121e-23
1.1347483753e-24
1.68949479637e-26
0.0150447519624
0
1.48922024291e-05
3.50515636505e-06
3.73630943531e-07
5.49851408704e-08
7.64757509602e-09
9.291402349e-10
9.5319933762e-11
8.26372603195e-12
6.08550163032e-13
3.82464327354e-14
2.06156102023e-15
9.59963596043e-17
3.90019658896e-18
1.40491058299e-19
4.58209570771e-21
1.39922822493e-22
4.01240878709e-24
8.1054265036e-26
0.0458106099122
0
1.29254385721e-05
6.48218914329e-06
8.28503002713e-07
1.33185890555e-07
1.99377371024e-08
2.66774111352e-09
2.97910043395e-10
2.75049050026e-11
2.11773126054e-12
1.37284709614e-13
7.55883360565e-15
3.57285504243e-16
1.46797212175e-17
5.35452873014e-19
1.77637431177e-20
5.63660196002e-22
1.72267996476e-23
4.60979222509e-25
0.0834462277701
0
0
5.46518474588e-06
1.49876815545e-06
2.17800673141e-07
3.83660471961e-08
5.91226293932e-09
7.50452076582e-10
7.69464926328e-11
6.44176245417e-12
4.46661374726e-13
2.59796303004e-14
1.28564933243e-15
5.49505500197e-17
2.08000925683e-18
7.16108952704e-20
2.38449585804e-21
7.73407061612e-23
2.48514416053e-24
0.121361234753
0
0
4.89024111926e-06
2.01024674765e-06
3.23189796227e-07
6.35992082364e-08
1.10575741424e-08
1.59651829536e-09
1.84156397221e-10
1.70625242755e-11
1.29018131422e-12
8.08447619582e-14
4.26891236494e-15
1.9320740819e-16
7.70640702221e-18
2.78535264109e-19
9.75199043585e-21
3.31649980245e-22
1.17249719157e-23
0.155679830055
0.00954960746236
1.5757711375e-06
6.53102309197e-06
2.53039795613e-06
5.42937658737e-07
9.19810378546e-08
1.81656379919e-08
2.97770155261e-09
3.8752179999e-10
4.00026418446e-11
3.32800707971e-12
2.2693608241e-13
1.29195877012e-14
6.25352743828e-16
2.65015032967e-17
1.01092394551e-18
3.71232058847e-20
1.30624869246e-21
4.76099529913e-23
0.185167190204
0.0216143309513
0.000126319757489
4.85447979256e-06
2.89412695831e-06
7.80080666335e-07
1.31571290907e-07
2.80040993981e-08
5.08691237621e-09
7.39690384329e-10
8.48728255172e-11
7.77993234148e-12
5.79356850133e-13
3.57222237448e-14
1.85790740564e-15
8.39580431239e-17
3.38531196878e-18
1.29840013248e-19
4.67369781776e-21
1.68496073753e-22
0.210617908627
0.0345819447189
0.000372643345821
5.11795642041e-06
3.26054344884e-06
1.03570788149e-06
1.82263664876e-07
4.12320851988e-08
8.15208527174e-09
1.30932732334e-09
1.66025743195e-10
1.67285547467e-11
1.3600492114e-12
9.09039378752e-14
5.08707524703e-15
2.45314977357e-16
1.04494147963e-17
4.1673089008e-19
1.52125020468e-20
5.29109574714e-22
0.232884576492
0.0486066118191
0.000803292441268
8.25279212877e-06
3.58655139981e-06
1.30193368043e-06
2.44189630794e-07
5.82961792946e-08
1.23982871969e-08
2.17838310746e-09
3.03418884983e-10
3.34828156696e-11
2.96586863914e-12
2.14660058008e-13
1.29177857652e-14
6.64160652487e-16
2.98368301622e-17
1.23238697038e-18
4.53336983093e-20
1.49868719027e-21
0.252673938879
0.0637382961
0.00144039718854
1.39193179863e-05
3.34941369363e-06
1.47085153187e-06
3.56170371928e-07
7.59345716423e-08
1.77612441102e-08
3.41920979047e-09
5.21939668081e-10
6.29155047299e-11
6.05823690888e-12
4.73949240184e-13
3.06246965073e-14
1.6759518893e-15
7.92456433813e-17
3.37931954099e-18
1.24733031414e-19
3.88872809812e-21
0.270138786421
0.0800314131144
0.00448029705726
5.07146582251e-05
2.90329487289e-06
1.57876284146e-06
4.67830220147e-07
9.86630444625e-08
2.45610898005e-08
5.12369569822e-09
8.52542239521e-10
1.11866337828e-10
1.16782373979e-11
9.85298308246e-13
6.82274813262e-14
3.96642888638e-15
1.97008724727e-16
8.65421444893e-18
3.19753210241e-19
9.37520256256e-21
0.284363920815
0.097996465416
0.0116576134271
0.000157976171689
3.23966836819e-06
1.68913338354e-06
5.80585834307e-07
1.26002515331e-07
3.30530429357e-08
7.39776324345e-09
1.33306436984e-09
1.896009772e-10
2.13913654765e-11
1.94136821158e-12
1.4374424082e-13
8.85937742522e-15
4.61420523431e-16
2.08516008292e-17
7.70535072452e-19
2.12646433265e-20
0.295927428652
0.116372145846
0.0200124306877
0.000308497603606
4.37812086771e-06
1.86164605381e-06
7.01828651031e-07
1.58547421783e-07
4.34724102405e-08
1.03534443461e-08
2.00798200438e-09
3.082313644e-10
3.74602820994e-11
3.64711291317e-12
2.88097396384e-13
1.87885630133e-14
1.0246397524e-15
4.76062893521e-17
1.76017291803e-18
4.58758801102e-20
0.3050757279
0.134630582096
0.0300576426775
0.00056244115406
5.98536805493e-06
2.02018182571e-06
8.0609079135e-07
2.17674488885e-07
5.40890779137e-08
1.39519714348e-08
2.91682205912e-09
4.82386723697e-10
6.30066678565e-11
6.56587831957e-12
5.52227617952e-13
3.80458720383e-14
2.17028659926e-15
1.03681941595e-16
3.84088927395e-18
9.50345880111e-20
0.311563355253
0.152223272992
0.0417911719136
0.000991801079292
9.04668913278e-06
1.88671729783e-06
8.89074610515e-07
2.79366162104e-07
6.76815895911e-08
1.83853238775e-08
4.11071097187e-09
7.29870069913e-10
1.02212548602e-10
1.1378231902e-11
1.01717561483e-12
7.39380860474e-14
4.40897280025e-15
2.16721262417e-16
8.06114203739e-18
1.90590208955e-19
0.314710710641
0.168227618263
0.0552570645635
0.00163342609282
1.69811651558e-05
1.24580317042e-06
9.09977140511e-07
3.37545480249e-07
8.35294737195e-08
2.37464961102e-08
5.64253215536e-09
1.07159030213e-09
1.60523330825e-10
1.90551195517e-11
1.80810019067e-12
1.3854163734e-13
8.63386492317e-15
4.37144421835e-16
1.6370406535e-17
3.7262415222e-19
0.313503095411
0.180355200567
0.0704970128089
0.00819852342145
0.000103787372153
1.71016425094e-06
9.65986328238e-07
3.95909410665e-07
1.01486795235e-07
3.00640244372e-08
7.55885796768e-09
1.53083605557e-09
2.44814070956e-10
3.09453671966e-11
3.11337638911e-12
2.51319514111e-13
1.63701068396e-14
8.54966868952e-16
3.23347363354e-17
7.14415050003e-19
0.307204079959
0.18812455297
0.0849583317215
0.0164381859151
0.000247994843853
2.6689471923e-06
1.09452123847e-06
4.49768756674e-07
1.33143174657e-07
3.62342686572e-08
9.81350299786e-09
2.12686497036e-09
3.63202414552e-10
4.88627142983e-11
5.2095167404e-12
4.42940035289e-13
3.01683718784e-14
1.62801305202e-15
6.23911226384e-17
1.34981457123e-18
0.295775716666
0.191287903864
0.0969435942658
0.0252410746076
0.000427141164723
2.0295978947e-06
1.17908394744e-06
5.0882719266e-07
1.67123790437e-07
4.40282123842e-08
1.25165013192e-08
2.88675085606e-09
5.25596661075e-10
7.52096842223e-11
8.49427637781e-12
7.60779009095e-13
5.42167702267e-14
3.02864896625e-15
1.18026426591e-16
2.52294289942e-18
0.28002343377
0.190003070195
0.104904127306
0.034922725182
0.000774897871235
0
8.50730453701e-07
5.40487247514e-07
2.00736651082e-07
5.31086648401e-08
1.57282370804e-08
3.84009100465e-09
7.43795223579e-10
1.13107898631e-10
1.35287452249e-11
1.27667333141e-12
9.5276001836e-14
5.52009458556e-15
2.19522945101e-16
4.67799886584e-18
0.261385832629
0.185009437587
0.109322374562
0.0438655037363
0.00134729370262
0
4.73937110787e-08
5.22492320456e-07
2.29671991324e-07
6.28634773695e-08
1.94325319917e-08
5.01112623213e-09
1.03093116121e-09
1.6649288239e-10
2.10871290722e-11
2.0975073532e-12
1.6407889735e-13
9.87901285085e-15
4.02315185782e-16
8.62103103098e-18
0.241496975923
0.177334822321
0.110782758363
0.0511155634281
0.00673520432747
4.99280256832e-05
0
5.44849557305e-07
2.58589063677e-07
7.31831295022e-08
2.35693922991e-08
6.4123927236e-09
1.40028776983e-09
2.40126090312e-10
3.22103067543e-11
3.37911962353e-12
2.77374899063e-13
1.73889110536e-14
7.27630965466e-16
1.58062515228e-17
0.221794210104
0.168026716206
0.109859789929
0.0558332737786
0.0123111001068
0.000142559168781
0
5.83659763348e-07
2.8236804999e-07
9.11572365098e-08
2.72783830978e-08
7.98210359437e-09
1.85996630278e-09
3.39300306102e-10
4.82494208857e-11
5.34357661131e-12
4.60833165299e-13
3.01392494354e-14
1.30004378069e-15
2.88428076568e-17
0.203312086809
0.158026119335
0.107257677727
0.0585208990521
0.0170812096984
0.000296642479716
0
4.86384539508e-07
2.99893884091e-07
1.08580953817e-07
3.16978282421e-08
9.76633218399e-09
2.42165914625e-09
4.70124502399e-10
7.09300244981e-11
8.30114233505e-12
7.53096060167e-13
5.14793778948e-14
2.29596077661e-15
5.23795689539e-17
0.186625792481
0.148072949871
0.103667302683
0.059773769572
0.0209488450097
0.000527951040475
0
1.062465918e-07
2.94584675919e-07
1.23857538563e-07
3.65539642487e-08
1.17803267639e-08
3.09750298017e-09
6.39505926605e-10
1.02410945011e-10
1.26765273312e-11
1.21126433629e-12
8.66914330109e-14
4.0089962355e-15
9.46295683564e-17
0.171895850055
0.138643516729
0.0996316026544
0.0600904609924
0.0239910480086
0.00080442132346
0
0
2.67054646027e-07
1.3566962389e-07
4.15835654038e-08
1.39978113079e-08
3.8944202707e-09
8.5450605083e-10
1.45284624256e-10
1.90354613724e-11
1.91790514514e-12
1.43955443607e-13
6.92054518893e-15
1.69953443945e-16
0.158995086813
0.12996503686
0.0955094974565
0.0598384851938
0.0263762915184
0.0010893764497
0
0
2.25169778792e-07
1.39772388695e-07
4.976362904e-08
1.59204779183e-08
4.77473272896e-09
1.11884603792e-09
2.02347568061e-10
2.80993729288e-11
2.98916582156e-12
2.35673572879e-13
1.18064078472e-14
3.03150473597e-16
0.147662878058
0.122084232416
0.0915036557935
0.0592759040026
0.028346502607
0.00231759626399
1.59466343908e-05
0
1.71634172978e-07
1.39417799891e-07
5.68213276325e-08
1.80965818624e-08
5.74917211034e-09
1.43644670227e-09
2.76583627211e-10
4.07588605793e-11
4.58402619836e-12
3.80229391154e-13
1.98933998733e-14
5.36434524967e-16
0.137616853691
0.114928279
0.0876686233767
0.058494413283
0.0299144279161
0.00476437089629
8.97462501494e-05
0
1.08237660033e-07
1.35006872432e-07
6.26014659381e-08
2.03826158551e-08
6.81466567919e-09
1.81066699929e-09
3.71149618597e-10
5.80902505795e-11
6.91510049453e-12
6.04284465462e-13
3.30839530816e-14
9.40537897286e-16
0.128616570674
0.108377006403
0.0839750813294
0.0575001219586
0.0310598100002
0.00702392644438
0.000195147372047
0
0
1.25829241156e-07
6.70309493125e-08
2.26673222773e-08
7.96045646393e-09
2.24402315377e-09
4.89354859692e-10
8.1372955115e-11
1.02609835796e-11
9.45704153698e-13
5.42700025503e-14
1.63198743311e-15
0.120489999279
0.102332520376
0.0803991640735
0.0563187701995
0.0318507424242
0.00903671108621
0.000319655407267
0
0
1.10465133229e-07
6.9926863132e-08
2.48691964671e-08
9.16371217875e-09
2.73606690499e-09
6.34302933881e-10
1.12067139483e-10
1.49766745235e-11
1.45698504622e-12
8.77518479802e-14
2.79916145082e-15
0.113119972697
0.0967332197828
0.0769391880763
0.0549925869758
0.0323569294482
0.010811123182
0.000453102815948
0
0
8.81732345714e-08
6.94671987371e-08
2.83687523216e-08
1.01470010969e-08
3.26175860689e-09
8.06875395751e-10
1.51643478838e-10
2.14927622441e-11
2.20859331873e-12
1.39756866013e-13
4.73999370634e-15
0.10641865843
0.0915420665736
0.0736074204835
0.0535670225451
0.0326342788625
0.0123529253999
0.000590383481949
0
0
5.34837518522e-08
6.66314922098e-08
3.11783881894e-08
1.12064383466e-08
3.82153461861e-09
1.00743288859e-09
2.0149652244e-10
3.03064005828e-11
3.29169839787e-12
2.1903324751e-13
7.91415690118e-15
0.100308350404
0.0867316215257
0.0704196448961
0.0520839423114
0.0327264072006
0.0136669556735
0.000729682167354
0
0
5.67505722117e-09
6.08920649479e-08
3.31435988821e-08
1.22576668102e-08
4.40668927576e-09
1.23507448988e-09
2.62821402739e-10
4.19637010799e-11
4.8198828712e-12
3.37484665757e-13
1.30126747197e-14
0.0947097052078
0.082270486121
0.0673836211654
0.0505728938604
0.0326615228184
0.01475324435
0.000867869139799
5.03402058626e-06
0
0
5.33147696622e-08
3.42521689912e-08
1.32325350245e-08
5.0028443302e-09
1.48738977116e-09
3.36504659543e-10
5.70369512451e-11
6.92971012348e-12
5.10813045743e-13
2.1049276477e-14
0.0895362553894
0.0781143005092
0.0644902900579
0.0490447789373
0.0324503169761
0.0156048358521
0.00100015132206
1.98229947811e-05
0
0
4.37548259968e-08
3.44742101131e-08
1.40874962612e-08
5.59250069658e-09
1.76037297795e-09
4.23021466999e-10
7.60967551626e-11
9.77987220035e-12
7.59115661629e-13
3.34694861642e-14
0.0846968671525
0.0742047806025
0.0617112807662
0.0474901573608
0.032089733284
0.0162466774123
0.00168791722988
5.84148248327e-05
0
0
3.23735465574e-08
3.32441292041e-08
1.53737743281e-08
6.04141259932e-09
2.03946823875e-09
5.21712092775e-10
9.96391768271e-11
1.35463410992e-11
1.1072489124e-12
5.22766161972e-14
0.0801065677217
0.0704815318773
0.0590131634257
0.0458982866593
0.0315875067894
0.0167077958706
0.00276220051047
0.000119081562339
0
0
1.75023247812e-08
3.1111094728e-08
1.63004044287e-08
6.49299250036e-09
2.3227001274e-09
6.3163474471e-10
1.28052345806e-10
1.84142912967e-11
1.58477586238e-12
8.0162950764e-14
0.0756944284575
0.066891926224
0.0563679194245
0.0442656550736
0.0309605220435
0.0169967206225
0.00373003756465
0.000183710561849
0
0
0
2.80649775575e-08
1.68534535704e-08
6.91520545735e-09
2.60495632878e-09
7.51278797545e-10
1.61560483195e-10
2.4565764305e-11
2.22533000148e-12
1.20630627252e-13
0.071403819306
0.0633907172264
0.0537491817431
0.0425862385465
0.0302197349575
0.0171280926776
0.0045389699682
0.000247578111555
0
0
0
2.44605164152e-08
1.70521892988e-08
7.28349025319e-09
2.87915404176e-09
8.78452482342e-10
2.00171160208e-10
3.21646551984e-11
3.06535245964e-12
1.78093569987e-13
0.0671915394169
0.0599396822632
0.0511308991884
0.040848069077
0.0293643541788
0.0171043069428
0.00518039809192
0.000308192331144
0
0
0
1.96414786605e-08
1.68245646849e-08
7.60581637815e-09
3.13960037016e-09
1.01050048027e-09
2.43654822651e-10
4.1342426766e-11
4.14239353892e-12
2.57950427723e-13
0.0630268991131
0.056508491966
0.048489347117
0.0390358741046
0.0283847778559
0.0169225662991
0.00564720043003
0.000362789718744
3.0780958238e-06
0
0
1.33865334953e-08
1.60043250287e-08
8.02741234648e-09
3.32618058952e-09
1.14042125912e-09
2.91292307e-10
5.21732722398e-11
5.49270797215e-12
3.66622248471e-13
0.0588900684403
0.0530750640866
0.045805591487
0.0371363940537
0.0272741306553
0.0165781635785
0.00593594109072
0.000408477535862
1.02762468021e-05
0
0
6.48294640934e-09
1.48197966487e-08
8.27439060024e-09
3.49859539421e-09
1.26630708089e-09
3.4222917302e-10
6.46674963048e-11
7.1487385909e-12
5.11545787432e-13
0.0547697032149
0.0496247478538
0.0430662331508
0.0351401920639
0.0260281868287
0.016066146243
0.00604535342946
0.000442210504631
1.67792578947e-05
0
0
6.02432845756e-10
1.33827691524e-08
8.36085062547e-09
3.64550012066e-09
1.38565746221e-09
3.954886823e-10
7.87720464099e-11
9.13730705373e-12
7.01170535892e-13
0.0506608542769
0.0461491184201
0.0402629319247
0.0330411407731
0.0246434176894
0.0153842492413
0.00597607206666
0.000461452180815
2.12629585167e-05
0
0
0
1.19380812388e-08
8.31689708828e-09
3.76032100203e-09
1.49592342042e-09
4.50012526151e-10
9.43745652215e-11
1.14784035482e-11
9.44970254245e-13
0.0465633655186
0.0426448734148
0.0373918634859
0.0308362295365
0.0231211618888
0.0145354354836
0.00573263983926
0.000464535715814
2.54095220862e-05
6.26105411924e-07
0
0
1.04924867848e-08
8.16646293588e-09
3.84014001783e-09
1.59475160547e-09
5.0467323003e-10
1.11302462569e-10
1.41834916303e-11
1.25337374711e-12
0.042480114126
0.0391121386994
0.0344525708712
0.0285263413933
0.0214648373751
0.0135253427006
0.00532299965201
0.000450386891332
2.87551356725e-05
1.29469059384e-06
0
0
8.99463934387e-09
7.90302172699e-09
3.90044844059e-09
1.68144116928e-09
5.58415284428e-10
1.29334054983e-10
1.72548017209e-11
1.63774650309e-12
0.0384161254238
0.035553638571
0.0314472278563
0.0261157711429
0.0196763495868
0.0123586234916
0.00475473496383
0.000418370239783
3.06637356169e-05
1.75230510362e-06
4.91401604789e-08
0
7.37465537145e-09
7.52521770286e-09
3.9475137906e-09
1.75597684302e-09
6.10367273661e-10
1.48229807789e-10
2.06880815894e-11
2.11051331067e-12
0.0343780700317
0.0319738904676
0.0283795073778
0.0236091833033
0.0177603286125
0.0110419595498
0.00403965878662
0.000389268863513
3.23114102377e-05
2.15725745216e-06
9.64507352314e-08
8.04033783343e-10
5.48723020194e-09
7.07283315511e-09
3.97045303262e-09
1.8001272675e-09
6.58578830204e-10
1.67665516685e-10
2.44684658828e-11
2.68495761675e-12
0.0303739895487
0.0283792516074
0.0252558779229
0.0210104049485
0.015722232984
0.0095857092655
0.00321061086646
0.000348303325233
3.2675097234e-05
2.49802735011e-06
1.38338791739e-07
3.91060649087e-09
3.39135122072e-09
6.53564467491e-09
3.9451436801e-09
1.83368254293e-09
7.02493696546e-10
1.87270842924e-10
2.85633270965e-11
3.37430408092e-12
0.0264120754081
0.0247769320316
0.0220816716045
0.0183240182484
0.0135672084894
0.00799595632243
0.00226183980791
0.00027845865855
2.971219755e-05
2.60033918353e-06
1.69863479814e-07
6.88709281752e-09
1.64142576894e-09
5.92878346739e-09
3.87833937275e-09
1.85535093986e-09
7.41612134005e-10
2.06685663817e-10
3.2927237864e-11
4.19522690951e-12
0.0224981944753
0.0211716376671
0.0188592307586
0.0155500389242
0.0112923201602
0.00626634621266
0.00118826337283
0.000172126119803
2.14558230726e-05
2.18921648781e-06
1.6911485208e-07
8.70536223919e-09
7.42197385789e-10
5.28447339783e-09
3.7776240759e-09
1.86487776031e-09
7.75505964519e-10
2.25557333948e-10
3.74995754732e-11
5.17119249399e-12
0.0186341954042
0.0175623083235
0.0155856328335
0.0126871112493
0.00891704371424
0.00453493294867
0.000795176684345
0.000124091353304
1.68888458201e-05
1.9095782129e-06
1.67317227113e-07
1.0223794647e-08
5.40160622835e-10
4.61446153312e-09
3.64903623019e-09
1.86271153912e-09
8.03769141934e-10
2.4350618957e-10
4.22236821784e-11
6.31876926143e-12
0.0148255836189
0.0139529216408
0.0122636214947
0.00974096355082
0.00645034710282
0.00277317776118
0.00053757401377
9.24709500543e-05
1.38199415312e-05
1.72321217968e-06
1.69031321171e-07
1.19247875675e-08
6.41384794291e-10
3.89461070361e-09
3.49248109145e-09
1.85243183074e-09
8.26419615611e-10
2.5997841013e-10
4.72469231728e-11
7.66207894119e-12
0.0110835653696
0.0103561974595
0.00890809117326
0.00673231974991
0.00393758104862
0.00110160090487
0.000260738190198
5.31454495253e-05
9.21166200501e-06
1.31848170325e-06
1.48691547351e-07
1.22654901853e-08
7.79146795913e-10
3.02566239884e-09
3.30529470029e-09
1.83319026297e-09
8.43243481012e-10
2.74837613382e-10
5.25341999562e-11
9.22651697595e-12
0.00742808011561
0.00680219852853
0.00557018188676
0.00377103474167
0.0016810583927
0.00049108626424
0.000127756956457
2.9079302726e-05
5.66183573522e-06
9.1484905236e-07
1.17510444251e-07
1.12474489473e-08
8.37766270663e-10
1.99608240206e-09
3.08256974123e-09
1.80213201865e-09
8.53109647154e-10
2.88698595129e-10
5.80739839373e-11
1.10387858322e-11
0.00391415073915
0.00338075748393
0.0024161228374
0.00121234217932
0.000508869486514
0.000179027860509
5.41341110293e-05
1.4071180607e-05
3.10416015522e-06
5.67696102064e-07
8.29950443124e-08
9.17899511609e-09
7.84167589116e-10
1.05179965747e-09
2.80500769818e-09
1.75941295867e-09
8.5854338678e-10
3.01403179641e-10
6.38613435975e-11
1.31278884116e-11
0.000940020180781
0.000744362000359
0.000528620515281
0.000303423787069
0.000145992078152
5.94262332045e-05
2.06346629883e-05
6.10810221845e-06
1.52651041395e-06
3.15978305518e-07
5.25227582007e-08
6.68690319944e-09
6.50885346254e-10
4.81636789902e-10
2.47818428518e-09
1.7081795325e-09
8.59603754649e-10
3.12857173352e-10
6.9902657212e-11
1.55256987889e-11
0.000192571939937
0.00016266863102
0.000120595495647
7.60592839741e-05
4.08823367891e-05
1.87577483311e-05
7.35185752547e-06
2.45306369668e-06
6.9033069091e-07
1.6109654358e-07
3.03414567479e-08
4.42618309539e-09
4.94518996499e-10
2.50564830713e-10
2.11792403086e-09
1.64841622177e-09
8.5699580021e-10
3.23121700437e-10
7.62293346542e-11
1.82685564019e-11
4.23889291483e-05
3.68553495278e-05
2.85003140867e-05
1.92840804611e-05
1.13209160015e-05
5.73594697729e-06
2.4968795462e-06
9.27998129115e-07
2.91535084853e-07
7.61954394486e-08
1.6169130298e-08
2.6871653463e-09
3.48258279325e-10
1.71356142923e-10
1.73127779549e-09
1.5774277117e-09
8.51630020142e-10
3.32303948138e-10
8.28770727212e-11
2.13941171764e-11
1.00244765961e-05
8.81626245846e-06
7.03572949208e-06
5.01984276135e-06
3.16212299295e-06
1.74135416817e-06
8.31293956242e-07
3.41011760212e-07
1.18885102057e-07
3.46845730947e-08
8.28161363697e-09
1.56800874439e-09
2.38273333299e-10
1.35468945841e-10
1.31526501832e-09
1.48890071677e-09
8.45198273464e-10
3.41032100648e-10
8.9943717195e-11
2.49135069835e-11
8.64272843217e-25
1.33608562287e-24
7.76993937853e-25
1.41979573808e-24
1.48480916422e-24
1.78686840188e-24
4.89523189597e-24
5.01911344925e-24
1.61329214358e-23
1.13205700878e-23
4.76104152535e-23
2.49098888197e-23
1.26077890454e-22
5.28274106295e-23
3.03999870706e-22
1.07539908899e-22
6.78742309104e-22
2.11038024527e-22
1.42497634335e-21
4.01807521957e-22
2.85022562876e-21
7.4693562253e-22
5.49239585229e-21
1.36348748796e-21
1.02933935128e-20
2.45664552724e-21
1.8912627966e-20
4.38881591079e-21
3.4303695863e-20
7.80731558617e-21
6.17972827428e-20
1.38853471613e-20
1.11226978964e-19
2.47922029334e-20
2.02641061253e-19
4.48194160966e-20
3.75904857365e-19
8.28955131954e-20
7.02105902488e-19
1.55922744836e-19
1.31398109706e-18
2.96274507671e-19
2.45871610416e-18
5.66162577624e-19
4.59510016918e-18
1.08503067493e-18
8.57068914714e-18
2.08166053526e-18
1.59413046043e-17
3.99247129313e-18
2.95392068181e-17
7.64492695249e-18
5.44670947279e-17
1.45950666963e-17
9.98064055464e-17
2.77387887535e-17
1.81496612281e-16
5.23989199898e-17
3.2707463779e-16
9.82175119482e-17
5.83251859321e-16
1.82366839502e-16
1.02762939612e-15
3.34840061873e-16
1.78622651156e-15
6.06898342889e-16
3.05914175128e-15
1.08421176111e-15
5.17657328607e-15
1.91118343752e-15
8.63439763457e-15
3.32286617506e-15
1.41459038522e-14
5.67940435217e-15
2.27197337687e-14
9.51883689902e-15
3.57398756307e-14
1.56201543309e-14
5.50512620485e-14
2.50782493619e-14
8.30531260569e-14
3.93908198325e-14
1.22793302718e-13
6.05569693366e-14
1.78074611899e-13
9.1189361246e-14
2.53573440857e-13
1.34642665658e-13
3.54947170395e-13
1.95152077694e-13
4.8897402677e-13
2.77989518332e-13
6.6368450242e-13
3.89638826315e-13
8.8850193247e-13
5.3796611091e-13
1.17404938729e-12
7.32300874713e-13
1.53308832535e-12
9.83854769778e-13
1.9810774132e-12
1.30620190394e-12
2.53536181795e-12
1.71533003158e-12
3.21620344146e-12
2.23015868863e-12
4.04787119378e-12
2.87320364737e-12
5.0595842632e-12
3.67155891474e-12
6.28322694453e-12
4.65650073733e-12
7.75187403073e-12
5.86232422227e-12
9.5038748108e-12
7.32710239672e-12
1.15790783801e-11
9.09154025824e-12
1.40057781835e-11
1.11893050454e-11
)
;

boundaryField
{
    inletfuel
    {
        type            fixedValue;
        value           uniform 1;
    }
    inletair
    {
        type            fixedValue;
        value           uniform 0;
    }
    outlet
    {
        type            zeroGradient;
    }
    axis
    {
        type            empty;
    }
    leftside
    {
        type            zeroGradient;
    }
    burnerwall
    {
        type            zeroGradient;
    }
    front
    {
        type            wedge;
    }
    back
    {
        type            wedge;
    }
}


// ************************************************************************* //
