/*--------------------------------*- C++ -*----------------------------------*\
| =========                 |                                                 |
| \\      /  F ield         | OpenFOAM: The Open Source CFD Toolbox           |
|  \\    /   O peration     | Version:  2.2.x                                 |
|   \\  /    A nd           | Web:      www.OpenFOAM.org                      |
|    \\/     M anipulation  |                                                 |
\*---------------------------------------------------------------------------*/
FoamFile
{
    version     2.0;
    format      ascii;
    class       volScalarField;
    location    "1000";
    object      H2O;
}
// * * * * * * * * * * * * * * * * * * * * * * * * * * * * * * * * * * * * * //

dimensions      [0 0 0 0 0 0 0];

internalField   nonuniform List<scalar> 
1629
(
4.85728238908e-10
1.14405384001e-09
3.85967291254e-09
6.10974820901e-08
2.41793671653e-07
1.28205380839e-06
4.52915987726e-06
2.83214114588e-05
0.000216365763796
0.000236312424646
0.00214369328762
0.0248926073534
0.000883093584381
0.00595154237258
0.0431015290832
0.00214211010844
0.011190903546
0.0568396450258
0.00428051139452
0.0177333465543
0.0672462697198
0.0076382204854
0.0253835743804
0.0753048550801
0.0126058237864
0.0338964068952
0.0818935644018
0.019531150232
0.0430114248882
0.0876995781775
0.0285704092895
0.0525270556008
0.0932152805409
0.0395640364936
0.0623485679772
0.0987668213934
0.0520373998295
0.0724522211381
0.104542268316
0.0653493276628
0.0828115577519
0.110648013991
0.0788806182641
0.0933399832187
0.117121328005
0.0921499957414
0.103883800651
0.123923705621
0.104838763296
0.114258611421
0.130956897631
0.116761179971
0.12428919016
0.138086353847
0.12782928126
0.133841728587
0.145178296016
0.138022260349
0.142833126414
0.152119916988
0.147358795153
0.151220594609
0.158820147305
0.155879406565
0.158991273343
0.165211987755
0.163636114077
0.166153862729
0.17125236192
0.170688777736
0.172734495639
0.176921954547
0.17710185283
0.178771691981
0.182220927912
0.18293872589
0.184308437421
0.187159624992
0.188258809375
0.189387989877
0.191753992297
0.193116425122
0.194051944021
0.196023254171
0.197561737431
0.198340621719
0.199989893442
0.201640686194
0.202292376296
0.203678150896
0.205393111496
0.205940993641
0.207110264325
0.208853188155
0.209315833148
0.21030626919
0.212050475148
0.212442690653
0.213284599936
0.21501064219
0.215344324101
0.216062262146
0.217756646534
0.218041455555
0.218655499126
0.220309033972
0.22055287788
0.221079534747
0.222685266027
0.222894603326
0.223347394339
0.224900043867
0.225080139313
0.225470120667
0.226966034105
0.227121192321
0.227457444687
0.228894399615
0.229028163178
0.229318203698
0.230695217361
0.230810521584
0.231060619076
0.232377742333
0.2324770296
0.232692430428
0.233950483352
0.234035783509
0.234220864641
0.23542108342
0.235494070558
0.235652444672
0.236796112365
0.236858149588
0.236992749772
0.238080752359
0.238132930253
0.238246087372
0.239278411222
0.239321579651
0.239415090757
0.2403903216
0.240425115054
0.240500302817
0.241415190336
0.24144204672
0.241499807266
0.242348798019
0.242367965777
0.242408792584
0.243183720294
0.243195262056
0.243219261354
0.243909127376
0.243912921344
0.243919819635
0.244510586221
0.244506329047
0.244495477895
0.244969619118
0.244956838605
0.244927233605
0.245261002735
0.24523904221
0.245189268969
0.245325323299
0.24529251107
0.245218842406
0.245070239719
0.245024206497
0.244921321638
0.24436142764
0.244299335816
0.244160786979
0.242963436717
0.242881185382
0.242697512998
0.240449076862
0.240339748967
0.240095102861
0.236062563948
0.235913053469
0.235577961095
0.227553810167
0.227327316226
0.22682432024
0.214644527982
0.214397822856
0.213853263765
0.110611597997
0.137767691173
0.137955245273
0.134926059964
0.132791488633
0.131840978599
0.131857850547
0.132616971991
0.133983284173
0.135879797084
0.138324041798
0.141344513891
0.144920694616
0.148985485175
0.153432397657
0.158145753187
0.163015594766
0.16793766428
0.172821527339
0.177595358294
0.182208897665
0.186632184009
0.190847038397
0.19484383408
0.198619698734
0.202178524978
0.205529203056
0.208680993863
0.211643262809
0.214425898045
0.217039124413
0.219493749339
0.221800535146
0.223968714735
0.226006207192
0.227920257865
0.229717746597
0.231405323117
0.232989414571
0.234476097129
0.235870848541
0.237178294509
0.238401886104
0.239543498527
0.240603012702
0.241577936459
0.242462934556
0.243249523095
0.243925837888
0.244476415085
0.244881776118
0.245115500565
0.245111381891
0.244772412317
0.243960886755
0.242432334796
0.239740881694
0.235091173298
0.226101610478
0.21307469886
2.87881144446e-07
9.40932665529e-08
4.64890906656e-08
2.31497447579e-08
9.05572857345e-09
2.68333385286e-09
6.12480566742e-10
1.10134545729e-10
1.58688966432e-11
1.85666207912e-12
1.78246778125e-13
1.41675428647e-14
9.40515745538e-16
5.25143701664e-17
2.49683187642e-18
1.01377015014e-19
3.6210998171e-21
1.11269960285e-22
3.14092991112e-24
4.86876763583e-26
4.5486033255e-05
9.805702266e-06
2.12305674448e-06
6.27409828736e-07
1.83301020938e-07
4.38845361641e-08
8.27240510814e-09
1.24334111975e-09
1.51691775451e-10
1.52522701602e-11
1.27869309521e-12
9.02551061387e-14
5.41152225937e-15
2.77748589026e-16
1.23439848712e-17
4.78167176356e-19
1.65451525784e-20
5.08862238336e-22
1.42909604501e-23
2.16537544243e-25
0.00295073582609
0.000428828493311
5.2445049891e-05
9.80610017991e-06
2.0137352866e-06
3.83217978073e-07
6.06598118368e-08
7.86571054574e-09
8.44846682934e-10
7.6061052851e-11
5.79122837434e-12
3.75772581239e-13
2.09289595382e-14
1.0088132164e-15
4.25132606302e-17
1.5867207707e-18
5.34765490459e-20
1.66023466504e-21
4.71978194275e-23
6.91794491946e-25
0.10300858453
0.00863290695192
0.00162735585841
0.000149573933466
1.9771947749e-05
2.767349281e-06
3.81024027386e-07
4.57489608852e-08
4.64359982503e-09
3.98786210096e-10
2.91278267956e-11
1.82026717728e-12
9.79463918677e-14
4.57798505281e-15
1.87861286081e-16
6.88707108278e-18
2.30355343238e-19
7.30174759851e-21
2.17888701168e-22
4.49685709895e-24
0.207207845042
0.029910113798
0.00590944565489
0.00104841758076
9.66030552241e-05
1.27044551801e-05
1.68076512944e-06
2.03466733873e-07
2.09691943234e-08
1.82286034677e-09
1.3436828823e-10
8.45629088813e-12
4.57590843583e-13
2.15015899565e-14
8.87507791878e-16
3.28546724683e-17
1.11621962363e-18
3.6655438308e-20
1.1600397274e-21
3.14197788671e-23
0.217728607721
0.0795834544976
0.0127528270016
0.00247285893921
0.000383794298623
3.65957290909e-05
5.07929343558e-06
6.60594237171e-07
7.33436942607e-08
6.78641826987e-09
5.26402548437e-10
3.45643114419e-11
1.93950379125e-12
9.41210636024e-14
4.00179408071e-15
1.52615172071e-16
5.34984290148e-18
1.83137972761e-19
6.10404852369e-21
1.97481378584e-22
0.21663754685
0.168423174037
0.0205245749369
0.00423511151887
0.000810373473119
8.17205472662e-05
1.2027327854e-05
1.69266604642e-06
2.06408985742e-07
2.08407747912e-08
1.74419027921e-09
1.223144381e-10
7.26952473818e-12
3.71253023776e-13
1.65271937417e-14
6.57932256097e-16
2.40145412992e-17
8.57149620168e-19
2.97060193642e-20
1.05284302645e-21
0.213141784184
0.227052142639
0.0303627727388
0.00624634798508
0.00135761320051
0.000151389984718
2.38789394975e-05
3.6361087612e-06
4.8883670567e-07
5.44141810987e-08
4.97766034416e-09
3.77944828754e-10
2.41127958884e-11
1.31213547393e-12
6.18322714225e-14
2.59129409389e-15
9.89811702839e-17
3.67411933527e-18
1.3067720493e-19
4.75220714675e-21
0.207599150324
0.232013653017
0.0476218509658
0.00878995724854
0.00196782568345
0.000312808957772
4.02426622614e-05
6.76257416072e-06
1.00789796823e-06
1.24365263654e-07
1.25171971927e-08
1.03660980554e-09
7.15412657902e-11
4.17923879218e-12
2.09873372739e-13
9.30532618768e-15
3.72856032988e-16
1.43428013272e-17
5.17932221937e-19
1.8534835823e-20
0.201887925755
0.230692270478
0.0762186751873
0.0121408060231
0.00274407648921
0.000524507371939
6.65107640913e-05
1.17607138458e-05
1.90083659398e-06
2.57701668195e-07
2.84736001959e-08
2.5742896491e-09
1.92678608392e-10
1.21225300577e-11
6.50844600099e-13
3.05965099491e-14
1.2866647301e-15
5.11103930402e-17
1.85886747859e-18
6.38330073731e-20
0.196630385266
0.229516624281
0.119778965557
0.0162916954893
0.00371362779429
0.000799982716706
0.000104994147517
1.94399916307e-05
3.36190256259e-06
4.95918956507e-07
5.98370844034e-08
5.89177580707e-09
4.77939023059e-10
3.23956985367e-11
1.86075595191e-12
9.27642336285e-14
4.0909239239e-15
1.67271717067e-16
6.09171700686e-18
1.97736796655e-19
0.192048630042
0.229320965354
0.174859425136
0.0220161588594
0.00496799768795
0.00116257591336
0.000160046721965
3.08445274674e-05
5.65249935033e-06
8.99706599448e-07
1.17905483972e-07
1.26001075808e-08
1.10541138144e-09
8.06161818936e-11
4.94948395338e-12
2.61390253973e-13
1.20710139346e-14
5.06703765307e-16
1.84063286498e-17
5.60300127817e-19
0.188143016979
0.229143370011
0.221006636776
0.0323549111976
0.00667813151898
0.00158135702326
0.000280440361893
4.53502734309e-05
8.97218097081e-06
1.54495966111e-06
2.19620915485e-07
2.54206711056e-08
2.40700453227e-09
1.88525828613e-10
1.23525430109e-11
6.89951337029e-13
3.33088791886e-14
1.43264639313e-15
5.17974284001e-17
1.47452197793e-18
0.185103165506
0.226229669092
0.227684523241
0.0489810957095
0.00890514833831
0.00211769330477
0.000435580002139
6.76571642693e-05
1.39056558855e-05
2.55350017804e-06
3.91171944671e-07
4.8853264234e-08
4.97848180748e-09
4.17791533856e-10
2.91543676018e-11
1.71900649336e-12
8.66153311068e-14
3.81251870968e-15
1.3709487064e-16
3.65267003567e-18
0.182964007542
0.222272867333
0.227954268568
0.0752388380542
0.0119324340143
0.00282205214385
0.000639888382978
9.98362455699e-05
2.11877076385e-05
4.10666259994e-06
6.7298216184e-07
9.02447932313e-08
9.86237619314e-09
8.84216051969e-10
6.55566299463e-11
4.07218414094e-12
2.13830247323e-13
9.62654016452e-15
3.44434268244e-16
8.61829159868e-18
0.181672192984
0.218359981956
0.228135563986
0.114025120854
0.0160422293809
0.00376963162508
0.000917231764203
0.000146083649564
3.18465796525e-05
6.46592439392e-06
1.12626021364e-06
1.6139071556e-07
1.88441308583e-08
1.79944226461e-09
1.41388177756e-10
9.23423207186e-12
5.04674075438e-13
2.32370017274e-14
8.28379660857e-16
1.95689934175e-17
0.181173443445
0.21501015495
0.229432344628
0.162921168581
0.0223923788626
0.00513023644297
0.00126446774857
0.000248935949204
4.56467887739e-05
9.87228162462e-06
1.83276502548e-06
2.80323297794e-07
3.48917472707e-08
3.54018152268e-09
2.94148385399e-10
2.01649215148e-11
1.14594873986e-12
5.39886322887e-14
1.92163095182e-15
4.31460881425e-17
0.181395107772
0.212412120915
0.231518708245
0.211460302484
0.0342723948261
0.00716448977313
0.00175986404911
0.000390425644257
6.7433555825e-05
1.49771382539e-05
2.92741596243e-06
4.75467703684e-07
6.28967631322e-08
6.76469047989e-09
5.93212864226e-10
4.26274334883e-11
2.5174675675e-12
1.21466151174e-13
4.32808766112e-15
9.30822745088e-17
0.182252824281
0.210469947994
0.230706870486
0.221571185288
0.0535964090219
0.00999119335885
0.00243667637579
0.000583959080464
9.93640388809e-05
2.25601101875e-05
4.60766538199e-06
7.90752859479e-07
1.10817567117e-07
1.26052262964e-08
1.16461800393e-09
8.76289906813e-11
5.37677156207e-12
2.66012779106e-13
9.51826985791e-15
1.97760581439e-16
0.183657573725
0.209090930938
0.228688786927
0.223851971904
0.0829816016382
0.0140632114333
0.00338318683991
0.000854721003517
0.000145676891106
3.3687538697e-05
7.15436258531e-06
1.29250067975e-06
1.91386605924e-07
2.29787061241e-08
2.23359759668e-09
1.75843274719e-10
1.12104797755e-11
5.69567175168e-13
2.05346600925e-14
4.15955467557e-16
0.18551375526
0.208253921942
0.226642844737
0.225677030279
0.122666923002
0.0201224987728
0.0047383385907
0.00119838535036
0.000248824602292
4.8093463559e-05
1.08186336924e-05
2.06829901535e-06
3.23940995461e-07
4.10414781847e-08
4.1946616607e-09
3.45442093445e-10
2.28920868339e-11
1.19646674294e-12
4.36203904722e-14
8.69657217242e-16
0.187725548273
0.207942140087
0.225114475979
0.228634134544
0.168973026463
0.0292930050698
0.00670640342072
0.00169967339657
0.000393585475989
7.10242087721e-05
1.63155272044e-05
3.26473074535e-06
5.38975307001e-07
7.19618761705e-08
7.72890195931e-09
6.65826658361e-10
4.58968504233e-11
2.47239057445e-12
9.14855607791e-14
1.81207087655e-15
0.190201897694
0.208113771357
0.224213125504
0.231858994684
0.207621994123
0.0452375628632
0.00961366931491
0.0024172056102
0.000597727287114
0.000105054272302
2.45039254274e-05
5.09523630823e-06
8.8327815396e-07
1.24068417191e-07
1.39936173887e-08
1.26122102078e-09
9.05083883063e-11
5.03494248294e-12
1.89787801091e-13
3.76880824446e-15
0.192858187117
0.208666566908
0.223562435979
0.232601092309
0.217585555464
0.0689825458886
0.01366275101
0.00340111443744
0.000881257822327
0.000154064635106
3.64316462469e-05
7.84639324406e-06
1.42529460602e-06
2.10406384282e-07
2.49140210563e-08
2.35000841892e-09
1.75739328696e-10
1.01159052116e-11
3.89816481553e-13
7.82634158191e-15
0.195625189516
0.209521041774
0.223100793448
0.232158952921
0.221136378491
0.100219863264
0.0194918920851
0.00477316158087
0.00123417315292
0.0002616329655
5.16290209047e-05
1.17483389608e-05
2.25151563627e-06
3.502267723e-07
4.35889540222e-08
4.30729405215e-09
3.36093644678e-10
2.00588274341e-11
7.92908176767e-13
1.62181057902e-14
0.198445161085
0.210617663455
0.2228754606
0.231548098218
0.224114310084
0.136072778079
0.0281902954349
0.00673034806692
0.00173990765272
0.000409719268911
7.5445492212e-05
1.75034902566e-05
3.50427277978e-06
5.73078799569e-07
7.49629459715e-08
7.76584805281e-09
6.33042783616e-10
3.92490563936e-11
1.59658509092e-12
3.34982309484e-14
0.201271413228
0.211910487471
0.222933854516
0.231262374027
0.227780103608
0.172385676983
0.0413438778028
0.0095581343174
0.00246034840814
0.000616397516083
0.000110357071521
2.59373873756e-05
5.38609657829e-06
9.22999899565e-07
1.26769873159e-07
1.3771582312e-08
1.17394629505e-09
7.57443240767e-11
3.17989917637e-12
6.88535598902e-14
0.204067316485
0.213358213517
0.223279592292
0.231409315612
0.231879989707
0.204278980204
0.0602734331453
0.0134820390715
0.0034415260419
0.000898434102765
0.000159593548746
3.79570368671e-05
8.15148950912e-06
1.4613445551e-06
2.1064284387e-07
2.40047535697e-08
2.14189149922e-09
1.44044641863e-10
6.25732375228e-12
1.4056911547e-13
0.206805944879
0.214914895367
0.223823638353
0.231573189755
0.233758496787
0.21420884319
0.0843881020547
0.0187011546502
0.00472398932488
0.00123120412771
0.000262173135836
5.26951872944e-05
1.19530375828e-05
2.25882017251e-06
3.42807032831e-07
4.1054850939e-08
3.84005330318e-09
2.69624006333e-10
1.21482850578e-11
2.84459973854e-13
0.209469489138
0.216542433632
0.224503180711
0.231682576242
0.234315857996
0.218427094586
0.111458791024
0.0259320987836
0.00643910985269
0.00168011266732
0.000395819509198
7.48191649092e-05
1.73492050237e-05
3.42797042118e-06
5.47014951734e-07
6.88780726397e-08
6.76024932709e-09
4.96255954456e-10
2.32387758333e-11
5.69448348636e-13
0.212044262773
0.218208888128
0.225286735989
0.231815304386
0.234478250916
0.221586430749
0.138589070801
0.0361484822442
0.00878730627198
0.00229028817764
0.000573625696177
0.00010605624437
2.49824770854e-05
5.12683653468e-06
8.57621906631e-07
1.13441443444e-07
1.16854799719e-08
8.97581725896e-10
4.37526967037e-11
1.12568013222e-12
0.2145206036
0.21989033213
0.226160855909
0.232052326578
0.234703003377
0.224813600836
0.163564051002
0.0501639416384
0.012024513649
0.00311784198725
0.000811693149121
0.000149067408395
3.55871594371e-05
7.55589744738e-06
1.32177139303e-06
1.83465468008e-07
1.98306069605e-08
1.59453950774e-09
8.09968863167e-11
2.19388540714e-12
0.216892973445
0.221569997177
0.227117884266
0.232438901289
0.235155848347
0.228240591186
0.185436485528
0.0679893172417
0.0164652185317
0.00422692961933
0.00109464856218
0.00023515297396
4.83466150321e-05
1.08218226822e-05
1.99155582551e-06
2.90670077576e-07
3.29974786506e-08
2.77946569002e-09
1.4727334589e-10
4.20916552266e-12
0.219159145256
0.223235478004
0.228147569052
0.232980477236
0.235839365933
0.231673114009
0.203662095372
0.0884073156451
0.0223453533732
0.0056673910069
0.00146351817197
0.00034303763622
6.67899852954e-05
1.53027487276e-05
2.94252682127e-06
4.51089109188e-07
5.37960872068e-08
4.7496777453e-09
2.6273589759e-10
7.93927350291e-12
0.221319462706
0.224875087601
0.22922426287
0.233603830022
0.236449032829
0.233698764363
0.211591181909
0.109041678111
0.0298781142105
0.00749465772385
0.0019325759957
0.000477628308486
9.15772990994e-05
2.13714655281e-05
4.27182176503e-06
6.86360608309e-07
8.59438662882e-08
7.9546443685e-09
4.59616854928e-10
1.4708979578e-11
0.223375758317
0.226478265064
0.230321530291
0.234253473526
0.236905885554
0.234703770029
0.215507569451
0.128066115138
0.0394776910578
0.00984338115627
0.00253008463372
0.000646561924594
0.000123712422181
2.94330125532e-05
6.10031227604e-06
1.02531758008e-06
1.34673719755e-07
1.30628438281e-08
7.88477312649e-10
2.67610406408e-11
0.225329599763
0.228035294125
0.231419047512
0.234908244167
0.237262341603
0.235240342008
0.218199012237
0.144659174041
0.0512389621705
0.0128954412258
0.00329660450873
0.000860330759313
0.000164882842036
3.99471778021e-05
8.57223361568e-06
1.50524282111e-06
2.07208229941e-07
2.1051085876e-08
1.32720162207e-09
4.78310213221e-11
0.227182648197
0.22953896071
0.2325044688
0.235566601458
0.237585801763
0.235620582618
0.220445390836
0.158517283722
0.0648773330763
0.0168761613238
0.00428428876612
0.00110509754672
0.000240796047476
5.19398613069e-05
1.17413460848e-05
2.16535709545e-06
3.12860210099e-07
3.32993208509e-08
2.19288002945e-09
8.40012297312e-11
0.228937227919
0.230985058216
0.233571362078
0.236232773146
0.237922015864
0.235985628088
0.22247740591
0.170106217008
0.0794239297888
0.0220138456418
0.00555662845505
0.00141941579182
0.000332777143901
6.84926196927e-05
1.58945395714e-05
3.06214209151e-06
4.63942001229e-07
5.17217592048e-08
3.55734368124e-09
1.44962603979e-10
0.230596380246
0.232371724552
0.234616382546
0.23690989673
0.238293556197
0.236387927102
0.224365174226
0.179911109191
0.0937252914315
0.02849307328
0.00718888374904
0.00182046181869
0.000445218312745
9.00920563236e-05
2.13123738684e-05
4.2670899932e-06
6.76491907782e-07
7.89248828509e-08
5.6669246388e-09
2.45784121422e-10
0.23216366042
0.233698493844
0.235637151953
0.237597558057
0.238705189133
0.236832560555
0.226102396066
0.188148907309
0.106937172519
0.0363577884422
0.00926919993536
0.00232878313824
0.000583172981152
0.000117335174051
2.82690135775e-05
5.86408742335e-06
9.70783152721e-07
1.1838123745e-07
8.86672953426e-09
4.09379460231e-10
0.233642854383
0.234965467145
0.236630954463
0.238291238659
0.239148781934
0.237297529004
0.227641159662
0.194888520619
0.118618553763
0.0453843931038
0.0119032835612
0.00297093491902
0.000752822306732
0.000151121985909
3.70356617035e-05
7.94599852612e-06
1.37151997386e-06
1.7460186418e-07
1.36291708645e-08
6.69853719148e-10
0.235037637664
0.236172605075
0.237593863339
0.238982222869
0.23960641691
0.237743646381
0.228908216244
0.200109743009
0.128363891177
0.0552637035811
0.0152324532612
0.0037833858776
0.000944097050419
0.000208609151042
4.68092028176e-05
1.05360424054e-05
1.90326209502e-06
2.53084201784e-07
2.0579716832e-08
1.07681926633e-09
0.236351220709
0.237319224259
0.238520395683
0.239658407556
0.240054858945
0.238128752596
0.229848878905
0.203894569373
0.136382461598
0.0652877024927
0.0193865011522
0.00481378700202
0.00118321503263
0.000275898260884
5.96940538972e-05
1.38053153122e-05
2.59930347393e-06
3.60652269374e-07
3.05303927734e-08
1.70099538569e-09
0.237586093258
0.238403819642
0.239403752183
0.240305745929
0.240469601044
0.238415775999
0.230434998496
0.206397653785
0.142939839344
0.0747350424971
0.0244243942326
0.00612339530236
0.00148272019374
0.000355420277692
7.58918558626e-05
1.79132002105e-05
3.5001103016e-06
5.05704404809e-07
4.45190533801e-08
2.6415221771e-09
0.238743748591
0.239423939405
0.240236057615
0.240909111118
0.24082610459
0.238571173535
0.230652605849
0.207768037266
0.148152686246
0.0830824857334
0.0302703122956
0.00779476583041
0.00186156312783
0.000450572181794
9.5716148914e-05
2.30149792673e-05
4.65249003896e-06
6.9843326915e-07
6.38568607904e-08
4.03568877311e-09
0.239824316067
0.240375944193
0.241008379104
0.241452692
0.24110047911
0.238565458319
0.230492444986
0.208124524285
0.152027109374
0.0898541655367
0.0368382566855
0.00993805835253
0.00234823507454
0.000566189174234
0.000119639775968
2.92681922466e-05
6.10867591758e-06
9.50942110758e-07
9.01770787254e-08
6.07156826036e-09
0.240826169708
0.241254754093
0.241710791354
0.241920670649
0.24127140388
0.238378332614
0.229956414986
0.207599742537
0.154687671447
0.0953683989668
0.0435678470277
0.0126367559841
0.00298082334245
0.000708896870798
0.00014834333776
3.68372511184e-05
7.92504473985e-06
1.27719603601e-06
1.25476405525e-07
9.00368126927e-09
0.241745543348
0.242053529531
0.242332145443
0.242296888319
0.241318608313
0.237992750212
0.22905392191
0.206317920124
0.15628615067
0.0998513767576
0.0499317145407
0.0159080895693
0.00381242689655
0.00088909125277
0.000183019846431
4.59229225386e-05
1.01640148032e-05
1.69325305721e-06
1.72184594519e-07
1.31747891787e-08
0.242575996591
0.242763094856
0.242859463314
0.242564101367
0.241221674893
0.237395141367
0.227797431065
0.204387305624
0.156956827493
0.103393134539
0.055421006774
0.0197693045816
0.00491513806604
0.00110926202945
0.000238220270319
5.59762072198e-05
1.28441968939e-05
2.21489607417e-06
2.33159994533e-07
1.90411019722e-08
0.243308074153
0.24337167312
0.24327794057
0.242704719816
0.240963817055
0.236573943174
0.226203579892
0.201908071313
0.15682348353
0.106049094911
0.0599187940115
0.0240645040308
0.00635660778645
0.001405512774
0.000304627471927
6.87850847352e-05
1.609330668e-05
2.86253072646e-06
3.11795854938e-07
2.72036002972e-08
0.243929009428
0.243864538382
0.243570496595
0.242699940739
0.24052826492
0.235520463992
0.224290622368
0.198969936123
0.156004839212
0.107920518748
0.063655354835
0.0284456886905
0.00816714417707
0.00180749052553
0.000386959646019
8.47384018835e-05
2.00377782723e-05
3.66020236989e-06
4.12111523815e-07
3.84463681497e-08
0.244422425686
0.244223575702
0.243717106005
0.242529399955
0.239895231182
0.234222134205
0.222066576777
0.195632255383
0.154587497444
0.109099872876
0.0667898152415
0.0326155669164
0.0103147702931
0.00235184955286
0.000492443256224
0.000104510179564
2.48216766874e-05
4.6368256757e-06
5.39047861657e-07
5.38041598112e-08
0.24476788745
0.244426859592
0.243694618613
0.242168769815
0.239041419498
0.232661452948
0.219529979478
0.191931826986
0.152630859566
0.109647248795
0.0693520613967
0.036212526616
0.0128482349818
0.00308169817478
0.000631534266721
0.000129134286979
3.06110398437e-05
5.82542356844e-06
6.98564052163e-07
7.46252912749e-08
0.244937616763
0.244444054474
0.243468706924
0.241577817569
0.237917405142
0.230774350644
0.216597695696
0.187806838686
0.150109274361
0.109560243513
0.071332532385
0.0392721889662
0.0156311272597
0.00401783368163
0.000815909797469
0.000159897737852
3.75661799413e-05
7.25753454043e-06
8.97163661288e-07
1.02610353411e-07
0.244857041218
0.244178388752
0.242898816114
0.240527330613
0.236104597246
0.227710047364
0.211360932758
0.182717378562
0.146910343377
0.108835083854
0.0727410021843
0.041902309574
0.0184956011848
0.005153166519
0.00105872596046
0.000198534635685
4.58658034987e-05
8.96531550814e-06
1.14220910637e-06
1.39996015552e-07
0.24442353436
0.243515137938
0.241855584517
0.238882817142
0.233518296635
0.223646152653
0.205009019489
0.176889910695
0.14311175021
0.107530735614
0.0736184462759
0.0441568058118
0.021206830452
0.00654184891461
0.00137032777803
0.000254545007862
5.54009824756e-05
1.09678939576e-05
1.4418769563e-06
1.89711716621e-07
0.243494875021
0.242300791064
0.240167895045
0.236448012657
0.22992311426
0.218256545675
0.197827967867
0.170447648401
0.138751629167
0.105663698841
0.0739723498896
0.0460241733544
0.0236570091894
0.00820008348377
0.00177666422428
0.000323442841992
6.70604018755e-05
1.33128063128e-05
1.80558703995e-06
2.5517827653e-07
0.241814424051
0.24024432862
0.23747988945
0.232748109229
0.224621780468
0.210413747989
0.189525422675
0.163351752959
0.133846719992
0.103254620432
0.073811317536
0.047484883599
0.0258595626623
0.0100832278878
0.00229266623482
0.000408823653096
8.10386809404e-05
1.60318561393e-05
2.25056047111e-06
3.40788834415e-07
0.238913556439
0.236818627116
0.233163803827
0.226994700633
0.216587112471
0.200937667619
0.180330076409
0.155693730742
0.128457818242
0.100347383163
0.0731554807034
0.0485260152924
0.027811932071
0.0120463306614
0.00300290635788
0.000519413407036
9.78394670405e-05
1.9173093918e-05
2.79281065333e-06
4.52062139813e-07
0.233951248021
0.231084128969
0.226121374198
0.217934984278
0.206051054012
0.190179311867
0.17049643056
0.147660236269
0.122736245499
0.0970635299043
0.0720875958958
0.0491838132953
0.0295161883068
0.0140077816674
0.00396506964961
0.000671001276271
0.000118714226688
2.28406301415e-05
3.45320428708e-06
5.96072105564e-07
0.224437006305
0.220559707075
0.214470802168
0.205649707949
0.19372023084
0.178532393571
0.160251345169
0.139389085281
0.116773654998
0.0934668677482
0.0706468669019
0.0494706385882
0.0309494584939
0.0158969025456
0.0052027374269
0.000900552623827
0.000146867998693
2.72978273184e-05
4.26723077452e-06
7.82586071633e-07
0.211295275571
0.207337069608
0.201327394526
0.192889752759
0.181750747226
0.167813260368
0.151216730282
0.132365371722
0.11191600473
0.090728051177
0.0697828158831
0.0500796428195
0.0325302971849
0.0178811517044
0.00675601758373
0.00128837841288
0.000189690237401
3.31243233697e-05
5.29958376568e-06
1.02398655914e-06
7.82958626147e-23
1.21539822213e-22
6.71871118987e-23
1.27684428975e-22
1.25943645102e-22
1.59356234944e-22
4.48163359846e-22
4.7470034543e-22
1.62132209146e-21
1.1519398315e-21
5.23144990985e-21
2.73403536518e-21
1.50873627035e-20
6.25425689658e-21
3.95182905565e-20
1.37248309768e-20
9.57228240478e-20
2.90276598535e-20
2.17970290625e-19
5.95868127172e-20
4.73205776376e-19
1.19554001132e-19
9.91299520788e-19
2.35974564099e-19
2.02461240921e-18
4.60893351688e-19
4.06723749292e-18
8.95548737787e-19
8.0982536455e-18
1.73973895109e-18
1.60883939634e-17
3.39487003651e-18
3.20846655695e-17
6.68497251529e-18
6.4838418077e-17
1.33762901146e-17
1.34547879273e-16
2.75538391279e-17
2.82510921905e-16
5.80807352891e-17
5.96507017492e-16
1.24181571129e-16
1.26269103879e-15
2.6776443015e-16
2.67429383507e-15
5.80094631621e-16
5.65668112868e-15
1.25924287123e-15
1.19267938191e-14
2.73249473555e-15
2.50153131296e-14
5.91365469783e-15
5.20845025717e-14
1.27355202572e-14
1.07443071649e-13
2.72328759493e-14
2.19194195764e-13
5.77024822072e-14
4.41489385682e-13
1.20915118241e-13
8.76546216673e-13
2.50135095133e-13
1.71338041254e-12
5.10046074704e-13
3.29484282513e-12
1.02397771944e-12
6.23252733507e-12
2.02287562626e-12
1.16629111885e-11
3.9461169566e-12
2.14913931463e-11
7.59169237266e-12
3.89037540848e-11
1.43596436454e-11
6.90953132135e-11
2.66499866975e-11
1.20341021242e-10
4.847333589e-11
2.05522960386e-10
8.63695075631e-11
3.44275437979e-10
1.50759662545e-10
5.65979102694e-10
2.57908734889e-10
9.13949061204e-10
4.32753422771e-10
1.45124480634e-09
7.12943299286e-10
2.26850587652e-09
1.15452188642e-09
3.49501225357e-09
1.83998372629e-09
5.31297575337e-09
2.88933817041e-09
7.97664273999e-09
4.47506483563e-09
1.18357149085e-08
6.84180094073e-09
1.73723043511e-08
1.03341193603e-08
2.52397703266e-08
1.54311632177e-08
3.63088195395e-08
2.27874856628e-08
5.17339919708e-08
3.32874729808e-08
7.30599253562e-08
4.81232326784e-08
1.02256587849e-07
6.88628250158e-08
1.41847436297e-07
9.75482388256e-08
1.9514118465e-07
1.36870199918e-07
2.66451709712e-07
1.90394953214e-07
3.6170059503e-07
2.62980911373e-07
4.88142385773e-07
3.60757056073e-07
)
;

boundaryField
{
    inletfuel
    {
        type            fixedValue;
        value           uniform 0;
    }
    inletair
    {
        type            fixedValue;
        value           uniform 0;
    }
    outlet
    {
        type            zeroGradient;
    }
    axis
    {
        type            empty;
    }
    leftside
    {
        type            zeroGradient;
    }
    burnerwall
    {
        type            zeroGradient;
    }
    front
    {
        type            wedge;
    }
    back
    {
        type            wedge;
    }
}


// ************************************************************************* //
