/*--------------------------------*- C++ -*----------------------------------*\
| =========                 |                                                 |
| \\      /  F ield         | OpenFOAM: The Open Source CFD Toolbox           |
|  \\    /   O peration     | Version:  2.4.x                                 |
|   \\  /    A nd           | Web:      www.OpenFOAM.org                      |
|    \\/     M anipulation  |                                                 |
\*---------------------------------------------------------------------------*/
FoamFile
{
    version     2.0;
    format      ascii;
    class       volScalarField;
    location    "0";
    object      k;
}
// * * * * * * * * * * * * * * * * * * * * * * * * * * * * * * * * * * * * * //

dimensions      [0 2 -2 0 0 0 0];

internalField   nonuniform List<scalar> 
1629
(
18.9268078572
24.1401479609
68.7284625928
16.2952986997
24.4699547453
92.3882025062
16.3372954765
26.37441305
103.679566808
16.2484033229
27.0037583299
89.7475824718
16.0508390283
28.0674978905
81.9222317969
15.9691240877
29.6270396425
75.18955859
16.2607455408
31.750710038
70.0263879901
17.1091494004
34.2508348491
66.0354461645
18.5862377307
36.8059301413
62.8865202337
20.6061613364
39.0263627947
60.2216704867
22.8869020426
40.5235701487
57.7074830445
25.0058693798
41.0728327793
55.1573259833
26.611528149
40.7526040385
52.54520074
27.6301498557
39.8058687256
49.908400171
28.1617528425
38.4530118667
47.25677668
28.3501171499
36.8868842932
44.5632784894
28.3464648081
35.2124545374
41.7513995496
28.1699585756
33.4072487229
38.7354180275
27.6976943757
31.4210179421
35.5156265055
26.8160085261
29.2709862111
32.2039277347
25.514613944
27.0218027172
28.961024626
23.8793241441
24.749195493
25.9285253833
22.064392096
22.5422161422
23.2012251242
20.2388891416
20.4905180094
20.8240787808
18.5242165614
18.6501568094
18.7927770573
16.967833639
17.0254389478
17.0613634287
15.5633408701
15.5845444657
15.5643054987
14.2869757111
14.2890499611
14.2417625039
13.1200055799
13.1117164738
13.0527111982
12.0516969388
12.0373398416
11.9739342088
11.0738933257
11.0559770887
10.9919760532
10.1770626766
10.1575921096
10.0957459765
9.35000027044
9.33082032524
9.27368802799
8.58130060896
8.56405026055
8.51405345993
7.86122518405
7.84716242698
7.80623620869
7.18313052554
7.17301329074
7.14229214785
6.54407490038
6.53814660194
6.51784772551
5.94469050837
5.94279059715
5.93233639456
5.38735452178
5.38907170503
5.38737071172
4.87394484383
4.87868766147
4.88432123051
4.4051959688
4.41227061951
4.4236460037
3.98077584613
3.98948839063
4.00502432092
3.59938660491
3.60910582428
3.62736228985
3.25899327953
3.26918252842
3.28893083922
2.95708946759
2.96731730766
2.98756425456
2.69093681516
2.70087362096
2.72085347169
2.4577391291
2.46714479778
2.48629174183
2.25474854621
2.26345686119
2.28137089619
2.07935198667
2.08725761986
2.10367500592
1.92913125277
1.93617839226
1.95094580053
1.80190018742
1.80807098677
1.82112078458
1.69577490923
1.70107903423
1.7124065293
1.60927499757
1.61373753343
1.6233750552
1.5414905027
1.54516178427
1.55319681763
1.49187164113
1.49484748293
1.50146436602
1.45991528053
1.46233054962
1.46779474268
1.44546414165
1.44749204658
1.45214683649
1.4492534323
1.45111977029
1.45541961994
1.47392391109
1.47590556938
1.48040206923
1.51830926765
1.52039205603
1.52499251545
1.5579235565
1.55974617457
1.56367606024
1.56747316119
1.56884057455
1.5717305028
1.52315801007
1.52417742212
1.52629408418
29.584819265
57.6459737252
64.80986276
64.5924522588
62.3432549547
59.8450563314
57.558630331
55.522358809
53.6476182232
51.8371555498
49.9977520503
48.0006297001
45.7268760747
43.0836599979
40.0398957635
36.6689728483
33.1295473232
29.6228146266
26.3364209809
23.399004744
20.8669971349
18.731462588
16.9366842501
15.4076551287
14.07524443
12.8893299149
11.8197865694
10.849622704
9.96659453057
9.15912272813
8.41567269641
7.72543045172
7.07974592716
6.47324758133
5.90438681286
5.37410356834
4.88337799068
4.43249218985
4.02117821348
3.64856622928
3.31325075291
3.013425809
2.74702936741
2.51185977764
2.30566289061
2.1262307279
1.97147225561
1.83945613147
1.72848639863
1.63719557067
1.56483434983
1.51113049047
1.47581780554
1.45896595932
1.461638011
1.48675404658
1.53133807821
1.56900064205
1.57556858031
1.52902813148
0.0349715105385
0.0170967773961
0.0158164614219
0.0156097598811
0.015381453567
0.0151927555073
0.0150598780199
0.0149775633565
0.0149289627588
0.0149012837748
0.0148854798734
0.0148770815766
0.0148720342001
0.0148707448716
0.0148688427206
0.0148729972193
0.0148699616398
0.0148858073806
0.0148769466078
0.0157204335404
0.0439743284426
0.020488409409
0.0175055338764
0.0167903317212
0.016058634273
0.0154979754417
0.015159825136
0.0149771196847
0.0148816827525
0.014832007709
0.0148053755788
0.0147918327892
0.0147838909127
0.0147816610437
0.014778838345
0.0147840718264
0.014780787687
0.0148025420327
0.0148068906656
0.0162090998619
0.0872716135225
0.0255392282814
0.0185491853843
0.0177357539941
0.0168654430582
0.0159208248905
0.0153258654189
0.0150152772138
0.0148650740905
0.0147924271769
0.0147555979157
0.0147377154558
0.0147274967335
0.0147248153279
0.0147215517446
0.0147281046472
0.014725703254
0.0147562300147
0.0147766224678
0.0165928969793
2.81752227916
0.0739051665648
0.0198275032747
0.0170001038649
0.0170663082707
0.0163405764993
0.0155653797026
0.0150939830513
0.0148636117397
0.0147571278057
0.0147058956518
0.0146821313943
0.0146689432885
0.0146656670437
0.014662050038
0.0146701315561
0.0146706401373
0.0147152251001
0.0147836200054
0.0194926807552
6.19209819443
0.145018789519
0.0189732875255
0.0148880288295
0.0164916173553
0.0165092115806
0.0157898219739
0.0151959763765
0.0148758570579
0.0147265212822
0.0146567688134
0.014625458319
0.0146085636854
0.0146043674178
0.0146004740497
0.0146098087476
0.014615824631
0.014673098259
0.0148484044082
0.0217500764542
10.1485193966
0.390539392026
0.022165211788
0.0124191319916
0.0153392220886
0.0163807709025
0.0159384894497
0.0153002876145
0.0148987088002
0.0147008483057
0.0146086330157
0.0145679889706
0.014546584511
0.0145411206179
0.0145370694535
0.0145473899654
0.0145618018488
0.0146277853479
0.0149644059892
0.0239404026738
14.1850364602
0.934434007614
0.0266856498819
0.0101082076432
0.0138690876039
0.0159870186723
0.0159786156195
0.0153859957302
0.0149266276315
0.0146796447848
0.014561772665
0.0145099973455
0.014483216184
0.0144760878505
0.0144719365903
0.0144830006951
0.0145079531296
0.0145804710631
0.0150943688274
0.0259773576238
18.1794159353
1.60456284801
0.045076393665
0.0085458807724
0.012276980894
0.0153815176574
0.0159072467462
0.0154405953198
0.0149543638188
0.014662221879
0.0145164686061
0.0144518043353
0.0144187162352
0.0144094907084
0.014405167518
0.0144169125715
0.0144531053863
0.0145337660119
0.0152078216371
0.0276529987257
22.0731893808
2.40348204538
0.0896902304969
0.00823960693098
0.0106994175737
0.014610924937
0.0157320184944
0.0154583905522
0.014977683102
0.0146477239572
0.0144729270788
0.0143937196653
0.0143533504713
0.0143415879069
0.0143368663483
0.0143494879426
0.0143961569047
0.0144893570719
0.0152944858988
0.028873071735
25.8061374308
3.42414841119
0.182205074832
0.00969575988606
0.0092535209791
0.0137175542128
0.0154584381943
0.0154349660513
0.0149924154562
0.0146349260873
0.0144311989562
0.0143359991041
0.0142873572755
0.0142726253369
0.0142671207784
0.0142810402462
0.0143363535265
0.0144472979956
0.0153561144383
0.0297035838075
29.2996587779
4.7193272703
0.35722187672
0.0134475941341
0.00802733408109
0.0127421469872
0.015091820947
0.0153660961412
0.0149941131421
0.0146221034161
0.0143911013519
0.0142788064251
0.0142209153622
0.0142027941339
0.0141959879724
0.0142117489943
0.014273346015
0.0144064906686
0.0153977697722
0.030232837047
32.4726575697
6.32824110259
0.651456256278
0.0215764749538
0.0071335471931
0.011724834913
0.0146394049458
0.0152481965558
0.0149782575029
0.0146070751963
0.0143521806622
0.0142221879067
0.0141541295908
0.0141322058855
0.0141234929749
0.014141633619
0.0142071140385
0.0143653663716
0.0154240207458
0.0305393011299
35.1851043323
8.31916387873
1.0628230563
0.0426654415824
0.00684951117548
0.0107044498762
0.014108273232
0.0150778374669
0.0149404350849
0.0145873523727
0.0143137338675
0.0141660749383
0.0140870333457
0.0140608890753
0.0140496330207
0.0140705718556
0.0141378395389
0.0143224228208
0.0154380921725
0.0306878356543
37.083644012
10.7304807896
1.61683884212
0.0863652856347
0.00746787292764
0.00971001010415
0.0135023549611
0.014852354235
0.0148772516215
0.0145606234323
0.0142749646774
0.0141103324012
0.014019615948
0.0139888063217
0.0139743872568
0.0139983457316
0.0140657886597
0.0142764906803
0.0154419746152
0.0307284432187
38.0902745909
13.3020941175
2.36926351797
0.173779806457
0.00963295707482
0.00878754737668
0.012824002911
0.0145699856007
0.0147867561373
0.0145251599022
0.0142351732297
0.0140548324959
0.013951863836
0.0139158860168
0.013897730017
0.013924695281
0.0139912289662
0.0142267865644
0.0154368183892
0.0306983875036
38.1800173338
15.8007259819
3.36425493314
0.341088448655
0.0144810951944
0.00802827975182
0.012079379146
0.0142293222024
0.0146673739375
0.0144794780777
0.0141937069776
0.0139994589939
0.013883784377
0.0138420515062
0.0138196422118
0.0138493650243
0.0139143857808
0.0141728633901
0.0154233106632
0.0306254090935
37.389621501
18.0128102666
4.60353025438
0.630833790511
0.0257869025354
0.007667930104
0.0112894630207
0.0138295222704
0.0145165407109
0.0144215245757
0.0141496388477
0.0139440010118
0.0138153855266
0.0137672335733
0.0137401157325
0.0137721355435
0.0138354275217
0.0141145260545
0.0154019283751
0.0305304371981
35.8272915723
19.7277798351
6.08720376147
1.07423374844
0.0559575053766
0.00823649448192
0.0104993500512
0.0133690280172
0.0143291577763
0.0143477442373
0.0141013364372
0.0138879910193
0.0137466242699
0.0136913687381
0.0136591518855
0.013692839842
0.0137544681909
0.0140517480163
0.0153730830837
0.0304295843954
33.6697119808
20.6450385677
7.79645501903
1.68101430064
0.120626246664
0.0102915927865
0.00975900584887
0.0128437559126
0.0140985659568
0.0142538321273
0.0140466786413
0.0138307433646
0.0136774057643
0.0136144087151
0.0135767624961
0.0136113699338
0.0136715781921
0.0139846046964
0.0153371987018
0.0303354156808
31.0852834599
20.8140195158
9.40442397565
2.45206366504
0.248652549072
0.015335470225
0.00918233894357
0.0122525396005
0.0138195047014
0.0141367439498
0.0139839673158
0.0137716826388
0.0136076804311
0.0135363589042
0.0134929812329
0.0135276789968
0.013586798124
0.0139132298227
0.0152947416363
0.0302579594554
28.2652963554
20.3509513853
10.6635060283
3.35157932591
0.478684472393
0.0268865542158
0.00905815103088
0.011611233154
0.0134883598407
0.0139943624617
0.0139119784024
0.0137104182887
0.0135374874782
0.0134572985913
0.0134078727252
0.0134417785137
0.0135001513878
0.0138377910398
0.0152462329206
0.030205485275
25.4167787947
19.4305081007
11.3704215987
4.32064076188
0.841146245377
0.0527374028918
0.00999566530915
0.0109718913564
0.0131035172745
0.0138240331137
0.0138291132353
0.0136463704562
0.0134668198463
0.0133773327132
0.0133215199749
0.0133537250153
0.0134116530658
0.0137584722594
0.0151922550872
0.0301836628288
22.716385493
18.2240382361
11.6070255767
5.1877731198
1.32624612785
0.105206204193
0.0128937015752
0.0104330312728
0.0126678121699
0.0136218165074
0.0137326076237
0.0135783011463
0.0133954129917
0.0132965070584
0.013233996091
0.0132636007905
0.0133213148106
0.0136754571779
0.0151334409291
0.030195262199
20.2839991263
16.8911483157
11.5049951495
5.87933089129
1.86931012122
0.201833919009
0.0189328364528
0.0101277818262
0.0121890438252
0.0133824441915
0.0136183962526
0.013504143322
0.0133226251846
0.0132147557312
0.0131453463793
0.0131714992484
0.0132291470292
0.0135889184113
0.0150704803534
0.0302434297954
18.1729723102
15.5585922208
11.1893545101
6.33409880931
2.42168955135
0.359795648218
0.0304106405489
0.010276813457
0.011683317122
0.0131014410222
0.0134825956853
0.0134216926439
0.0132476623547
0.0131319746739
0.0130556128099
0.0130775282729
0.013135163615
0.0134990179591
0.0150041221686
0.0303318515839
16.3768013573
14.3025232179
10.7479333415
6.58667271099
2.90679669562
0.585214836824
0.0515774090993
0.0112977392172
0.0111895394541
0.0127777114503
0.0133228683476
0.0133294545852
0.0131699583563
0.0130481676688
0.0129648914605
0.0129818284813
0.0130393907545
0.0134059158895
0.0149351858866
0.0304647520855
14.8515235325
13.1558957283
10.2417844243
6.68067177488
3.29623316037
0.865935613861
0.0883899937629
0.0138410600364
0.0107838399407
0.0124150014852
0.0131379159185
0.0132263614164
0.0130890892218
0.012963415652
0.0128733321259
0.0128845718307
0.0129418698203
0.0133097785451
0.0148645759479
0.0306468087769
13.5400438501
12.1222944302
9.71101886016
6.6603377346
3.59006294051
1.1747840806
0.148084608669
0.0188479761278
0.0105916545329
0.0120246210208
0.0129268922923
0.0131110542619
0.0130043357026
0.0128776534579
0.0127810485713
0.0127859228066
0.0128426459808
0.0132107807257
0.0147932919515
0.0308830727821
12.3900168004
11.1888690067
9.17723141844
6.56051816696
3.80316386068
1.48354815701
0.238491764797
0.0277386784627
0.010803780497
0.0116286748221
0.0126896117005
0.0129814630449
0.0129142912165
0.0127904315691
0.0126880049645
0.012685986736
0.0127417491231
0.0131091025216
0.0147224347111
0.0311788787469
11.3640845211
10.3407787787
8.65404796655
6.41156786817
3.96217385306
1.78207591192
0.36349306704
0.0419404761275
0.0116212704234
0.0112543650187
0.0124254088888
0.0128344865498
0.0128167157574
0.0127008137258
0.0125939568582
0.0125847834986
0.0126391835773
0.0130049280135
0.0146532084556
0.0315397388065
10.4398942801
9.5680636066
8.15251418549
6.23789292043
4.08102914062
2.04374707304
0.53237284396
0.0640007669017
0.0133138304555
0.0109350546159
0.012133779121
0.0126672118478
0.0127093645513
0.0126077366869
0.0124985786729
0.0124822987996
0.0125349471067
0.0128984550058
0.0145869245643
0.0319712301199
9.60284666326
8.86221844621
7.67595918567
6.04732625277
4.15624429163
2.26324575695
0.734054505435
0.0992104803082
0.0165018862403
0.0107434724944
0.0118198721684
0.0124788581272
0.0125910951758
0.0125105519404
0.0124016940158
0.0123785839693
0.0124290729442
0.0127899183567
0.014525013868
0.0324788998385
8.84115049498
8.21488722218
7.22270102111
5.84066666695
4.18659234526
2.44512965029
0.95132559764
0.15484858971
0.0222611185158
0.0108194786333
0.0114990986929
0.012270750686
0.0124616100727
0.0124089142002
0.0123032535622
0.0122737586465
0.0123216426331
0.0126796060559
0.0144690427652
0.0330681819825
8.1439929325
7.61850739484
6.79081878065
5.62026061275
4.17741850473
2.59397570976
1.16606588199
0.238388187735
0.0322324029176
0.0113876615385
0.0111993321771
0.0120458455788
0.0123207248878
0.0123023061891
0.0122030936736
0.0121678997285
0.0122127455637
0.0125678495539
0.014420722384
0.0337443026989
7.50077748619
7.06551540948
6.37822421412
5.3894489579
4.13590947111
2.71191853036
1.36350753327
0.354750717627
0.0489807484693
0.012794818034
0.0109649903302
0.0118090090711
0.0121682088733
0.0121898555601
0.0121007738622
0.0120609395832
0.0121024297509
0.0124549999713
0.0143818995313
0.0345121209234
6.90204360905
6.54859734767
5.9824780047
5.15113853472
4.06807852813
2.79985213985
1.53780258123
0.500985563017
0.0763651447865
0.0155662345523
0.0108632517888
0.011567479941
0.01200396897
0.0120704816349
0.0119955930388
0.0119526500171
0.0119906839083
0.0123414101016
0.0143545437835
0.0353756918274
6.34081093975
6.06180552525
5.60145510383
4.90776452514
3.97876460204
2.85946610224
1.69085172324
0.665366338346
0.119341590764
0.0204815984155
0.0109944751905
0.011332049762
0.0118284562505
0.0119432524436
0.0118867692761
0.0118427170197
0.0118774635264
0.0122274456074
0.0143407381628
0.0363383164634
5.81367177573
5.60179509322
5.23443928379
4.66219267638
3.87295734696
2.89456170792
1.8244133505
0.83324310357
0.18189790685
0.0286034346592
0.0115082040849
0.0111198852273
0.0116433567261
0.0118077805431
0.0117736755605
0.0117308569569
0.0117627474429
0.0121135214835
0.0143426133748
0.0373969654667
5.32015218212
5.16757728762
4.8817559963
4.41676358067
3.75366951492
2.90551302321
1.93575288751
0.989333004237
0.26754370342
0.0416843085637
0.0126527016615
0.0109607944372
0.0114525905233
0.0116644247411
0.0116559557601
0.0116168770023
0.0116465749061
0.0120001307449
0.0143623308497
0.0385463605605
4.86046322903
4.75885330519
4.54345959627
4.17206523724
3.62095543863
2.89052480712
2.01985225834
1.12501951221
0.376435369826
0.0626910105362
0.0148553018969
0.0109069438427
0.0112633178614
0.0115142911397
0.0115334912888
0.0115006407846
0.011529031713
0.0118878380853
0.014402085419
0.0397807701129
4.43460720157
4.37549231482
4.21972140885
3.92872150432
3.47564974856
2.85112217685
2.07710155218
1.24232572922
0.499811088765
0.095504882336
0.0187859202179
0.0110428614145
0.011086641979
0.011359135176
0.0114062967074
0.0113819844396
0.0114102002429
0.011777249276
0.0144641328177
0.0410947859279
4.04246591556
4.01765213881
3.91134466274
3.68847234904
3.3205375111
2.7912815127
2.11034614102
1.34270572328
0.626660283038
0.144146084464
0.025448880571
0.0114998491386
0.0109387231351
0.0112014113621
0.0112745069665
0.0112606876699
0.0112901262452
0.0116689873206
0.0145508200706
0.042483836206
3.68367200192
3.68559982251
3.6195304266
3.45374483666
3.15930695495
2.71548592465
2.12292504651
1.42664269524
0.747735500281
0.210723066911
0.0363206388248
0.0124858500929
0.0108440700358
0.011044847989
0.0111385754697
0.0111365644982
0.0111688419323
0.0115636963289
0.0146646361045
0.0439443820762
3.35754949141
3.37956382526
3.34562762742
3.22720973044
2.99578083237
2.62829236778
2.11833224784
1.49411006881
0.854633231298
0.294808186689
0.0536139527098
0.0143389239411
0.0108415286461
0.0108952146834
0.0109994125139
0.0110095385097
0.0110463949237
0.0114620655124
0.0148082776125
0.045473900317
3.06311573632
3.09960529984
3.09089027266
3.01143760908
2.83372571667
2.53383751317
2.09973942856
1.54532550905
0.946757004163
0.390301127906
0.0800929727451
0.0175783985116
0.0109907399684
0.0107606229051
0.0108583189495
0.0108796251395
0.010922836134
0.0113648349159
0.0149847154669
0.0470707602925
2.79911015239
2.84550237517
2.8562510561
2.80860694426
2.67645438463
2.43575095913
2.07013372329
1.58165024059
1.02627720144
0.488956488598
0.118398909436
0.0229859022765
0.0113854577378
0.0106526105561
0.0107171701677
0.0107470134526
0.0107982544771
0.0112728185153
0.0151972346957
0.0487337649429
2.56404025874
2.61669685742
2.64218721482
2.62031135549
2.52655925122
2.33716238098
2.03251837804
1.6053736495
1.09487860913
0.583562277011
0.169995319661
0.0317235888518
0.0121798182492
0.0105889378992
0.010578874344
0.0106122124512
0.0106728596346
0.0111869693397
0.0154494997417
0.0504617329041
2.35624726884
2.41233223551
2.44874063445
2.44756922441
2.38604454652
2.24083713583
1.99000239757
1.61929799004
1.15356612897
0.666976564853
0.235179453165
0.0455036470339
0.0136260585161
0.0105967379525
0.0104475584155
0.0104760127373
0.0105469770365
0.0111084129688
0.0157456392163
0.0522532154421
2.17400993631
2.23135759879
2.27562466856
2.29096779835
2.25638896101
2.14908619908
1.94536261228
1.62579186774
1.20277742725
0.740347030425
0.309278430082
0.0663305605346
0.0161140267469
0.01071637099
0.010328626472
0.0103393867226
0.0104210051339
0.0110384368002
0.0160902224753
0.0541059940472
2.01562662643
2.07261297103
2.12231181402
2.15074059974
2.13857756722
2.0636073929
1.90077765147
1.62679810261
1.24339180824
0.805804551879
0.386848323357
0.0959916926779
0.0202524683972
0.0110146926899
0.0102303938919
0.0102038808963
0.0102955861905
0.010978589261
0.0164882535456
0.0560165378215
1.87947329845
1.93490928557
1.98812424799
2.02681933516
2.03324120961
1.98573596381
1.85816225966
1.62426702451
1.27714983579
0.865199073322
0.46024106096
0.136601768016
0.0270326141613
0.0116075567315
0.0101662625753
0.0100719348599
0.0101717385036
0.0109308655009
0.0169453780371
0.0579805429599
1.76408553571
1.81713029302
1.87236161747
1.91901632137
1.94074672382
1.91642048745
1.8189611576
1.61985786696
1.30578509832
0.91909605417
0.526508063182
0.187561733437
0.0377508429775
0.0126732000624
0.010154699744
0.00994642149533
0.0100505980077
0.010897631668
0.0174680904002
0.0599941289009
1.66824580942
1.71832355025
1.7744267317
1.82716147218
1.86145539829
1.85670093495
1.78511658824
1.61593987496
1.33122744083
0.967972131372
0.586796725399
0.246069205232
0.053822226637
0.0144933752594
0.0102233764678
0.00983111644681
0.0099335227264
0.0108817978203
0.0180667883237
0.0620477799253
1.59138918008
1.63827064636
1.69462600897
1.75232689553
1.79755638052
1.81020273308
1.76114339304
1.61331694813
1.35243537965
1.01051251995
0.641814297819
0.306023818178
0.0773295877285
0.0175583551662
0.0104182225647
0.00973173848247
0.00982239137006
0.0108873465864
0.0187611484714
0.0641215511088
1.53353417106
1.57735719558
1.63368587097
1.6955226108
1.75000022366
1.77684273748
1.74479611385
1.6107973034
1.36871207014
1.04622863302
0.691509522926
0.36179270545
0.109422806541
0.0225879313048
0.0108097716435
0.00965609492409
0.00971945787911
0.0109190490299
0.0195579868893
0.0662069709317
1.49466903624
1.53580594725
1.59187615936
1.65671971545
1.71799275641
1.75434092563
1.73101992069
1.60745271457
1.38125825963
1.0765292798
0.73607951627
0.412250323866
0.149133275565
0.0304496520233
0.0115092776955
0.00961571174125
0.00962809527568
0.0109911482406
0.0204548091537
0.0682944639235
1.47510938784
1.51422821649
1.57007950137
1.63701725933
1.7026447217
1.74318901891
1.7194610148
1.60166333221
1.38859219022
1.10042027185
0.774531194569
0.457722993548
0.192072410701
0.0430850539954
0.0127503406274
0.00963054257952
0.00955315847985
0.0111099769754
0.0214554213007
0.0703700109218
1.47629493975
1.51451284246
1.57049941214
1.63831680744
1.70337075818
1.73731409724
1.70589152094
1.58990889945
1.38788491641
1.11584064133
0.805496429035
0.49812568532
0.234426963221
0.0614426455619
0.0148625891905
0.00973022264196
0.0095032434793
0.0112800557683
0.0225625111116
0.0724021846381
1.50140645546
1.53949425976
1.59393311323
1.6561109854
1.70853133898
1.72560562041
1.68380327399
1.56837456356
1.37687021426
1.12138518657
0.828117927288
0.532934487513
0.273724732632
0.084979174863
0.0186445477904
0.00998695422426
0.00948817418104
0.0115082402296
0.0237731070982
0.0743550750713
1.54553101687
1.57904070336
1.62341224724
1.66911179683
1.70072774104
1.69985259272
1.64872894977
1.53473527433
1.35445659358
1.11652120768
0.842020672996
0.561521646808
0.308916297363
0.112457370426
0.0248160200909
0.0105266963983
0.00952273762873
0.0118000859384
0.025077182217
0.0761971686709
1.58060719883
1.60505388623
1.63491057206
1.66250798403
1.67623879513
1.66184394843
1.60491899333
1.49439034703
1.32618078463
1.10608878777
0.850772932933
0.585896372013
0.341215150208
0.142537576284
0.0342380972329
0.0115453524477
0.00962919667675
0.0121579066354
0.0264539948417
0.0779064886713
1.58373410503
1.59966540676
1.6175781778
1.63137157606
1.63199687657
1.60817281372
1.54816495217
1.4424711862
1.28689043873
1.08516318401
0.850205194599
0.603082726203
0.369343389142
0.173035750608
0.0475709395159
0.0133714579363
0.00984578454453
0.012585207105
0.027882692361
0.0794470041585
1.53467802489
1.54554656394
1.55721558594
1.56484336236
1.5612740166
1.53741348288
1.48341631182
1.39066758137
1.25426387119
1.07541904827
0.863005514161
0.633463972568
0.408587788804
0.211301626067
0.0678904136339
0.0168812743315
0.0102681596763
0.0130730509898
0.0293148714466
0.0808521117087
0.0248797983089
0.0289079985012
0.0480717851127
0.0332042112349
0.0595756523932
0.0374586309804
0.0643815590997
0.0403344531923
0.0664874814505
0.0429045153347
0.0660237418075
0.0457395531226
0.0644535670879
0.0483760252192
0.0624938231588
0.0508214305069
0.0604464403964
0.0531050758615
0.058447920371
0.0552116130817
0.0565527313674
0.057111224067
0.0547746674265
0.0587775352888
0.0531106915766
0.0601937265485
0.0515528222777
0.0613542871469
0.0500935834937
0.0622643215419
0.0487281683828
0.0629377949135
0.0474548870363
0.0633949581025
0.0462712479861
0.0636576751851
0.0451786009092
0.063744232522
0.0441854254092
0.0636928043732
0.0432980967396
0.0635394934537
0.0425231244224
0.0633135343775
0.0418661445966
0.0630386302626
0.0413312647281
0.0627343210791
0.0409208565421
0.062416921626
0.0406356067847
0.0621001799767
0.0404746487228
0.0617957415647
0.0404357334952
0.0615134909702
0.0405154109369
0.0612618008761
0.040709154938
0.0610477195139
0.0410114835131
0.060877044801
0.0414159902992
0.0607542865896
0.0419152236819
0.0606829460876
0.0425013091349
0.0606648059148
0.0431715270787
0.0607017928682
0.0439124633659
0.0607969667205
0.0447065250537
0.0609555018092
0.0455368405287
0.0611755084297
0.0463886818266
0.0614501723115
0.0472500553139
0.0617698615855
0.0481126919551
0.0621239910514
0.0489719101282
0.0625022731028
0.049826367961
0.0628957030676
0.0506773395025
0.0632971656921
0.0515271425624
0.0637015355507
0.0523789501355
0.0641050353329
0.0532347840142
0.0645050544096
0.0540963662507
0.0648999999032
0.0549619851872
0.0652865038802
0.055830901708
0.0656587770839
0.056698791613
0.066010465829
0.0575634697605
0.0663348701085
0.0584200685799
0.0666251091788
0.0592677135536
0.0668771698839
0.0601077124594
0.0670913824832
0.0609201141873
0.0672663594234
0.0616695124649
0.0673994936855
0.062346332569
0.0674916586962
0.0629269820625
0.0675838909894
0.0634211714589
0.067582934215
)
;

boundaryField
{
    inletfuel
    {
        type            turbulentIntensityKineticEnergyInlet;
        intensity       0.05;
        value           uniform 13.5;
    }
    inletair
    {
        type            turbulentIntensityKineticEnergyInlet;
        intensity       0.05;
        value           uniform 0.015;
    }
    outlet
    {
        type            inletOutlet;
        inletValue      uniform 1;
        value           nonuniform List<scalar> 
26
(
1.52315801007
1.52417742212
1.52629408418
1.52902813148
1.53467802489
1.54554656394
1.55721558594
1.56484336236
1.5612740166
1.53741348288
1.48341631182
1.39066758137
1.25426387119
1.07541904827
0.863005514161
0.633463972568
0.408587788804
0.211301626067
0.0678904136339
0.0168812743315
0.0102681596763
0.0130730509898
0.0293148714466
0.0808521117087
0.0634211714589
0.067582934215
)
;
    }
    axis
    {
        type            empty;
    }
    leftside
    {
        type            compressible::kqRWallFunction;
        value           nonuniform List<scalar> 
65
(
0.0248797983089
0.0289079985012
0.0157204335404
0.0162090998619
0.0165928969793
0.0289079985012
0.0332042112349
0.0374586309804
0.0403344531923
0.0429045153347
0.0457395531226
0.0483760252192
0.0508214305069
0.0531050758615
0.0552116130817
0.057111224067
0.0587775352888
0.0601937265485
0.0613542871469
0.0622643215419
0.0629377949135
0.0633949581025
0.0636576751851
0.063744232522
0.0636928043732
0.0635394934537
0.0633135343775
0.0630386302626
0.0627343210791
0.062416921626
0.0621001799767
0.0617957415647
0.0615134909702
0.0612618008761
0.0610477195139
0.060877044801
0.0607542865896
0.0606829460876
0.0606648059148
0.0607017928682
0.0607969667205
0.0609555018092
0.0611755084297
0.0614501723115
0.0617698615855
0.0621239910514
0.0625022731028
0.0628957030676
0.0632971656921
0.0637015355507
0.0641050353329
0.0645050544096
0.0648999999032
0.0652865038802
0.0656587770839
0.066010465829
0.0663348701085
0.0666251091788
0.0668771698839
0.0670913824832
0.0672663594234
0.0673994936855
0.0674916586962
0.0675838909894
0.067582934215
)
;
    }
    burnerwall
    {
        type            compressible::kqRWallFunction;
        value           nonuniform List<scalar> 7(68.7284625928 92.3882025062 103.679566808 0.0349715105385 0.0439743284426 0.0872716135225 29.584819265);
    }
    front
    {
        type            wedge;
    }
    back
    {
        type            wedge;
    }
}


// ************************************************************************* //
