/*--------------------------------*- C++ -*----------------------------------*\
| =========                 |                                                 |
| \\      /  F ield         | OpenFOAM: The Open Source CFD Toolbox           |
|  \\    /   O peration     | Version:  2.2.x                                 |
|   \\  /    A nd           | Web:      www.OpenFOAM.org                      |
|    \\/     M anipulation  |                                                 |
\*---------------------------------------------------------------------------*/
FoamFile
{
    version     2.0;
    format      ascii;
    class       volScalarField;
    location    "0";
    object      k;
}
// * * * * * * * * * * * * * * * * * * * * * * * * * * * * * * * * * * * * * //

dimensions      [0 2 -2 0 0 0 0];

internalField   nonuniform List<scalar> 
1629
(
15.7675584857
21.8484439434
71.9320826148
16.8289781154
25.4897017072
98.099404336
17.3665562048
28.1019242664
110.186693209
17.4461788822
29.3468035062
98.3323143709
17.5764062461
31.5877578133
91.8198549774
18.0912637483
34.8192098492
86.3033339455
19.3680120551
39.2413518489
82.7763898465
21.775587127
44.6245793059
80.5315252466
25.6092684188
50.4476350256
79.0612886414
30.9073876567
55.9751344977
77.9752464331
37.2354951638
60.4807262626
76.9365969694
43.6689545566
63.4683376532
75.6197903822
49.1155248381
64.7498970128
73.7319129873
52.7765024123
64.4082680326
71.1159988212
54.376952842
62.6809481295
67.7413046476
54.0823977627
59.8598100646
63.6806963177
52.2823838852
56.2385825168
59.089691264
49.4141420723
52.0918797788
54.1727780862
45.8772513021
47.6730297074
49.1566063576
42.0006010452
43.1974004806
44.2359368986
38.0360642811
38.831283145
39.5498030091
34.1633753158
34.6918976459
35.1864214072
30.50117309
30.8537977681
31.1948998025
27.1198937049
27.3575290953
27.5962029811
24.0527553125
24.2157939545
24.3874912422
21.3069939961
21.421545241
21.5494051876
18.8723272438
18.9549011554
19.053267947
16.7275022342
16.7884684014
16.8660815759
14.8454149622
14.8914937006
14.9540757408
13.1968918603
13.2325378179
13.2840010401
11.7540950407
11.7822375782
11.8251931274
10.4915562698
10.514144977
10.55036263
9.38601497383
9.40435145535
9.43501377347
8.41666895705
8.43164509848
8.45758355073
7.56524450066
7.57754671689
7.5994963367
6.81596362259
6.82615856318
6.84482070082
6.15559475402
6.16414378721
6.18014699224
5.57298491808
5.58025878122
5.59414364004
5.05845025625
5.06474011981
5.07695157274
4.60345900259
4.60898571442
4.61987281859
4.20049102298
4.20541725299
4.21524456508
3.84298577604
3.84742897621
3.85639274429
3.52531362104
3.52935764742
3.53760141077
3.24272803231
3.24643337065
3.25406249933
2.99127045742
2.99468295841
3.00177781779
2.76764232931
2.77079939148
2.77742499013
2.56907881736
2.57201297932
2.57822486983
2.39323728164
2.39597878381
2.4018278865
2.23810084816
2.24067952746
2.24621625451
2.10190309922
2.1043483529
2.10962317063
1.98306988178
1.98540924127
1.99047036178
1.88019080349
1.8824490625
1.88734114605
1.79199928163
1.79419741738
1.79895970694
1.71738474627
1.71953777254
1.72419992553
1.65565968983
1.65777987019
1.66236926954
1.60665467046
1.60875048445
1.61328958365
1.57035938137
1.57242347321
1.57690249511
1.54694345865
1.54895114184
1.55332391561
1.53684698076
1.53876376413
1.54296128967
1.54022262319
1.54201233565
1.54595551988
1.55682616897
1.55845984038
1.56207212441
1.57770066108
1.57907280708
1.58210836628
1.56754758643
1.56858548034
1.57088551441
27.9408305745
58.265523263
68.7366278711
71.4322762739
71.3765023998
70.7233483349
70.1499323686
69.7038384263
69.1590823639
68.2093973559
66.6249800571
64.2505129315
61.0567291989
57.1549228094
52.7569285451
48.1294599927
43.5006248233
39.0315507805
34.8272108522
30.9511429824
27.436804261
24.289846393
21.4959806432
19.0301300211
16.8625232485
14.9627127213
13.2999732064
11.8451881434
10.5721047749
9.45688097493
8.47847212838
7.61885431188
6.86250906985
6.19623839737
5.60880856879
5.0903899407
4.63227414035
4.22677261279
3.86718208751
3.54775762107
3.26366530573
3.01088699601
2.78608608133
2.58647367572
2.40969597047
2.25373712208
2.11683454941
1.99741255839
1.89405629362
1.80548985924
1.73058175223
1.66864431665
1.61949854158
1.5830446574
1.5593493596
1.54878495331
1.55146817253
1.56714889275
1.58637972589
1.57412944361
0.0348858134509
0.0166961092454
0.0154972992217
0.0153540553641
0.0151968661858
0.0150797960942
0.0149957187996
0.0149431320456
0.0149107395133
0.0148917050463
0.0148803977397
0.0148743277023
0.0148705323692
0.0148698570281
0.0148683503414
0.014872638706
0.0148697762147
0.0148856135285
0.0148768704084
0.0157204357912
0.0458814165846
0.0195206230717
0.0163895010908
0.016011110238
0.0155672645725
0.0152368174164
0.0150282201092
0.0149130840524
0.0148502374436
0.0148164160656
0.0147975008776
0.014787761078
0.014781786925
0.0147804865395
0.0147782481059
0.0147836625951
0.0147806071475
0.0148023241962
0.014806742147
0.0162091121256
0.0723666607097
0.02250894656
0.0168153956675
0.0166873818881
0.0160882337453
0.0154979800363
0.0151206520442
0.0149210551395
0.0148214309018
0.0147717402724
0.0147455456295
0.0147327061135
0.0147250345628
0.0147235118191
0.0147209760112
0.0147277231797
0.0147255927128
0.0147560383343
0.014776428677
0.0165929977178
2.37378081809
0.0508933250701
0.0170091091105
0.0160923531564
0.0164060673208
0.0158428256481
0.0152896545592
0.0149620297544
0.0148039022693
0.0147297457871
0.0146930536637
0.0146759517423
0.0146660634872
0.0146642354708
0.0146615343952
0.0146698230719
0.014670671426
0.014715127237
0.0147835487512
0.0194960034166
5.98202741067
0.101380225003
0.0166507045276
0.0141949245286
0.0160176758233
0.0160263283074
0.0154745753807
0.0150268700793
0.0147973590268
0.01469079887
0.0146404311937
0.014617810742
0.014605167582
0.0146027870435
0.0146000479157
0.0146096155257
0.0146160723076
0.0146731796763
0.0148486214342
0.0217545489331
10.2533447332
0.291131538463
0.0198380828743
0.0118842807531
0.0150070258773
0.0159447413058
0.0156046149733
0.0150967194852
0.0147991976415
0.0146549781468
0.0145879640506
0.0145585110923
0.0145425439875
0.0145393572264
0.0145367556761
0.0145473469128
0.014562331189
0.0146281019904
0.0149649703826
0.0239439801228
14.616278796
0.77711472796
0.025579259413
0.00974470126466
0.0136481255124
0.0156262837359
0.0156410826956
0.0151528590033
0.014804650927
0.0146218254515
0.0145358266922
0.0144982542168
0.0144783541042
0.0144740673146
0.0144717211609
0.0144831032795
0.0145087809765
0.0145810060859
0.0150952375093
0.0259788924785
19.2868632931
1.54553820219
0.0382687400033
0.00816736579677
0.0121612443763
0.0151137349746
0.0155774956792
0.0151833615939
0.0148089794914
0.0145907021638
0.0144841824767
0.0144372789257
0.0144127932252
0.0144070873488
0.0144049849469
0.0144171034051
0.0144541844421
0.0145344271567
0.0152088649825
0.0276520977143
24.2550974424
2.50011281004
0.0774958818418
0.00776475621148
0.0106811786254
0.0144443344914
0.0154217182282
0.0151817652035
0.0148083041961
0.0145608259534
0.0144331322433
0.0143758114498
0.0143460608284
0.0143386197932
0.0143365931517
0.0143496541448
0.0143973765191
0.0144899977338
0.0152955248136
0.0288697900357
29.3849277373
3.78416476506
0.169263939057
0.00909692950451
0.00930287331728
0.0136511624969
0.0151804049095
0.0151440419259
0.0147994635496
0.0145312754994
0.014382698672
0.0143140371465
0.0142783275158
0.0142688544647
0.0142665753192
0.0142810189236
0.0143375510664
0.0144477422836
0.0153569571271
0.0296979844296
34.4356064522
5.5266150805
0.367965533747
0.0125573934317
0.00809215710355
0.0127601757359
0.0148558271867
0.0150673225238
0.0147796839712
0.0145009994261
0.0143328166136
0.0142520864272
0.0142097163178
0.0141979348159
0.0141949389806
0.0142113406273
0.0142743255016
0.0144065569888
0.0153982390564
0.0302249556972
39.0652877688
7.77396179833
0.743101634862
0.0205682324458
0.00718996918918
0.0117965085513
0.014448750179
0.0149499154838
0.0147465035161
0.014468881132
0.0142833377501
0.0141900387431
0.0141403038136
0.0141259441572
0.0141216773821
0.0141406215826
0.0142076686076
0.0143648877647
0.0154239686234
0.0305291169384
43.0017214055
10.5382523596
1.33399551381
0.0448313113251
0.00705898575147
0.0108072543357
0.0139595008166
0.0147885340774
0.0146965772612
0.0144334524459
0.0142339631554
0.0141279234826
0.0140701335169
0.0140529098272
0.0140467804589
0.0140687449031
0.0141377738307
0.0143212620329
0.015437403246
0.0306752429337
45.7384867913
13.8704049822
2.1726429136
0.10099125562
0.00815115640021
0.00983870987127
0.0133876184214
0.0145777788433
0.0146256210233
0.0143928267928
0.0141842190433
0.0140657322219
0.0139992381536
0.0139788222295
0.0139702469686
0.0139955201428
0.0140649381148
0.0142745492398
0.0154405625629
0.030713236444
47.1233004904
17.3742609419
3.3293145495
0.224555685757
0.0114335618061
0.00895483607458
0.012730675137
0.0143115977992
0.0145300843236
0.0143453315727
0.0141336686265
0.0140034956893
0.0139276815796
0.0139036667984
0.0138920970535
0.0139207343919
0.0139894745473
0.0142240089635
0.0154346197217
0.0306802516664
47.2056399023
20.6042430548
4.82877801627
0.478620434318
0.0183433802909
0.00827777622377
0.0119869714833
0.0139821469083
0.0144069366336
0.0142896558913
0.0140820533132
0.0139413533622
0.0138556037632
0.013827458853
0.0138123830225
0.0138441954644
0.0139116637528
0.0141692373374
0.0154202775345
0.0306039091829
46.1422947625
23.2059512197
6.58829944844
0.930176096396
0.0340032664966
0.00818270453174
0.0111770820249
0.0135817198044
0.0142530037373
0.014224427638
0.0140291806164
0.013879528303
0.0137832323544
0.0137502639395
0.0137311934032
0.0137657598161
0.0138317348241
0.0141100802863
0.0153980223162
0.0305050155351
44.1698580663
24.9990066905
8.52555667997
1.60597285295
0.0771262316168
0.0096683920877
0.0103861922127
0.0131043069652
0.014061731177
0.0141461374143
0.0139741251226
0.013818055993
0.0137108102977
0.01367218592
0.0136486452934
0.0136853433315
0.0137498634672
0.0140465482492
0.0153682699671
0.0303995649314
41.5842672881
25.8570166545
10.5530390593
2.48692341319
0.174942128547
0.0137393060124
0.00972186334374
0.0125453317381
0.013822982283
0.0140488882719
0.0139148649402
0.0137565858531
0.0136385137308
0.0135933441982
0.0135648708538
0.0136029196039
0.0136661784787
0.0139787483808
0.0153314444832
0.0303000884307
38.6227102789
25.9394605718
12.3417311195
3.53321181628
0.373568749918
0.0225118412656
0.00938552431844
0.0119098253438
0.0135268558064
0.0139274174257
0.0138493761813
0.0136947148506
0.0135665257879
0.0135138970454
0.0134800170402
0.0135185157084
0.0135807722009
0.0139068391331
0.0152880159095
0.0302165128769
35.4675490313
25.3957211376
13.7016875414
4.66782272381
0.725228201597
0.0402216986952
0.00979518431531
0.0112310534315
0.0131642893448
0.0137767100872
0.0137756174908
0.013632047431
0.0134950657282
0.0134340569691
0.013394249255
0.0134322059305
0.0134937112856
0.0138310060088
0.0152385079717
0.0301570523792
32.2660313568
24.3781462551
14.5370745354
5.79266081024
1.25892821723
0.0751738429859
0.0117217267222
0.0105983170708
0.0127314509026
0.0135911336044
0.0136907109376
0.0135678059517
0.0134242370197
0.013354039351
0.0133077357984
0.0133440975502
0.0134050446738
0.013751446517
0.0151835124439
0.0301280445883
29.1371725131
23.0377990049
14.8631604354
6.85340360682
1.92204718038
0.157412784434
0.0168980909922
0.0101987073499
0.0122353015495
0.0133629010294
0.0135894411807
0.0135000378458
0.0133536947289
0.0132739436753
0.0132206100139
0.0132543089354
0.0133148079844
0.0136683555209
0.0151236713771
0.0301323531388
26.1716608974
21.5133240858
14.8164953565
7.75762798647
2.64200889947
0.318307983644
0.0270050140915
0.0102469398758
0.0116929244296
0.0130831932001
0.0134651152877
0.0134257840126
0.013282601278
0.0131937207246
0.0131329550451
0.0131629559283
0.0132230263178
0.0135819151499
0.0150596915522
0.0301731701818
23.423095208
19.9068766968
14.491266762
8.41960568779
3.34800892363
0.58488377581
0.0458913965577
0.0111594938081
0.0111485588534
0.0127470875165
0.0133127636452
0.013342509895
0.0132101250907
0.0131133309312
0.0130448528528
0.0130701619628
0.013129720257
0.0134922941435
0.0149923422907
0.0302541935626
20.9138603266
18.2865270252
13.9529832238
8.79624679629
3.99429504203
0.96017164531
0.0815041391188
0.0137265616414
0.01070274861
0.0123571863871
0.0131288408062
0.0132479053028
0.0131354088587
0.0130327265963
0.0129563894954
0.0129760568857
0.0130349083719
0.013399653392
0.0149224639183
0.0303796498215
18.6473118414
16.6991911984
13.2577201231
8.91226505073
4.53507365036
1.4123781984
0.14875712234
0.0193593754015
0.0105431883862
0.0119296940777
0.0129104240034
0.0131387561847
0.0130569426741
0.0129515582407
0.0128675545011
0.0128807370785
0.0129385969746
0.0133041479604
0.0148509770203
0.0305542042446
16.6164864015
15.1800865424
12.4640133133
8.83653408087
4.9683021914
1.89195594046
0.267949978096
0.0297978819213
0.0109007552363
0.0114930980573
0.0126543076542
0.0130101518076
0.012972003394
0.0128688667606
0.0127781160901
0.0127842157425
0.0128407648814
0.0132059256882
0.0147788878647
0.0307828708067
14.8098667478
13.7576121522
11.6298470654
8.63668820594
5.29503995897
2.33781582597
0.457478276802
0.0472743216621
0.0120299249813
0.0110834364975
0.0123586126192
0.0128574267538
0.0128775416942
0.012783379948
0.0126877001979
0.0126864486873
0.0127413716456
0.0131051329982
0.0147072928048
0.0310709209106
13.21051965
12.4462205857
10.7926281452
8.34742921424
5.48579421672
2.7215139468
0.712464258584
0.0773448402019
0.0145105237356
0.0107739820894
0.0120276371842
0.0126787103619
0.0127716653994
0.0126941932516
0.0125960471795
0.0125874383325
0.0126403966261
0.0130019348597
0.0146373877437
0.0314237978568
11.798416978
11.2485121281
9.97208572071
7.98796108493
5.55083013099
3.02866914796
1.00802826891
0.129353871452
0.0193773802604
0.0107024359755
0.0116754250305
0.0124742627732
0.01265325923
0.0126006685182
0.0125030031371
0.0124872462304
0.0125378538826
0.0128965308737
0.0145704819329
0.0318470477974
10.5534886953
10.1616914045
9.18122675137
7.57814144739
5.51316137094
3.25875798049
1.30874729318
0.214624260103
0.0282237895008
0.0110851287753
0.0113291636213
0.0122458834094
0.0125212342259
0.0125019531241
0.0124082807725
0.0123858874591
0.0124337567345
0.0127891486292
0.0145080052738
0.0323462450745
9.45607436634
9.1794159689
8.42848801132
7.1371033741
5.39758590931
3.41660426616
1.58484538742
0.341128023178
0.0434781181766
0.0122396780175
0.0110331179979
0.0119977531332
0.0123744920541
0.0123967462243
0.0123112697281
0.0122832203939
0.0123280683213
0.0126800221402
0.0144515025204
0.03292687659
8.48823961358
8.29465374738
7.72094153758
6.68442702016
5.23033323229
3.51590619283
1.82312576827
0.50666382711
0.0680979920658
0.0145365506791
0.0108424849888
0.0117357524422
0.012211837213
0.0122832603156
0.0122109654736
0.0121788907483
0.0122206717768
0.0125693730052
0.0144026180038
0.0335941652006
7.63456773913
7.50118674641
7.06509737181
6.23814041522
5.033279142
3.56261627708
2.01841029573
0.698767595137
0.106053166671
0.0184615628903
0.010824314126
0.0114672374809
0.0120326675729
0.0121598710382
0.0121062695401
0.0120724457143
0.0121114097283
0.0124574196179
0.014363083742
0.0343528612519
6.88139826867
6.79205890077
6.46331445133
5.808110774
4.81668313965
3.56071618287
2.16738182013
0.8956601968
0.163563524055
0.0249789025409
0.0110971045406
0.0112057476046
0.0118382227575
0.0120259415354
0.0119964609818
0.0119635605761
0.0120001851396
0.0123444243493
0.0143347347816
0.0352067709877
6.2166490975
6.15961231746
5.91434414272
5.39845045223
4.58639677624
3.51718360493
2.27439755526
1.07890087107
0.245348180598
0.0355905979037
0.011855726182
0.0109752812798
0.0116316796989
0.0118816941948
0.0118812028145
0.0118520783273
0.0118870019194
0.0122307386155
0.0143195423487
0.0361591055108
5.62976784296
5.59636996086
5.41563170487
5.01163248552
4.34873673449
3.44168117641
2.34461006044
1.23502323092
0.35219857351
0.052528903913
0.0134019608623
0.0108137785987
0.0114182275209
0.0117278617313
0.0117603188748
0.0117379005436
0.0117719264263
0.0121168100333
0.0143195476108
0.037205452291
5.11134238777
5.09514235071
4.96398351414
4.6492586946
4.10979330981
3.34332695597
2.38276253335
1.36220045284
0.477266814636
0.0787582811484
0.0161801824935
0.0107777557173
0.0112054968176
0.0115655903866
0.0116336753096
0.0116208931594
0.0116550332199
0.0120031541349
0.0143368417897
0.0383413718516
4.65291718336
4.64914102231
4.55591005122
4.31217165302
3.87464252732
3.22965933704
2.3940361703
1.46444196474
0.609275631789
0.117789151644
0.0208408365747
0.0109501828508
0.0110042679949
0.0113965546376
0.0115012127857
0.0115008622031
0.0115363719611
0.0118903169484
0.0143735457417
0.0395617205664
4.24696028672
4.25211707432
4.18787306157
4.00057417829
3.64722780541
3.10689101321
2.38409436041
1.54582125732
0.737503679903
0.172800533906
0.0283343953252
0.0114538141225
0.0108297861548
0.0112231319217
0.011363040177
0.0113775828325
0.0114159624506
0.0117788549196
0.0144318072319
0.040861317794
3.88686340686
3.89845101634
3.85644120783
3.7141603657
3.43046115548
2.98008754391
2.35824880634
1.60918290886
0.854814443728
0.244868597217
0.0400557287176
0.0124786975359
0.0107047297951
0.0110487985752
0.0112196101496
0.0112508875758
0.0112938247703
0.0116693422465
0.0145138292145
0.0422354062672
3.56693028045
3.58318897714
3.55837773158
3.45222618218
3.22634065403
2.85322517606
2.32102471267
1.65641835463
0.955377722881
0.332814905205
0.0581469559417
0.0143374720341
0.0106652951371
0.0108789737398
0.0110718918683
0.011120746519
0.0111700144579
0.0115623927843
0.0146219269194
0.0436799196894
3.28234324223
3.30204962013
3.29070394351
3.21377557721
3.03604982037
2.72916128927
2.27587863126
1.68909572893
1.04019173595
0.430564869724
0.0853937985024
0.0175263211414
0.0107692011545
0.0107217975682
0.0109213998818
0.0109872669713
0.0110446177932
0.0114586690646
0.0147585977475
0.0451916466699
3.0290824724
3.05138412747
3.05072456221
2.9976165917
2.86010928528
2.60982503385
2.22547123641
1.70929301968
1.11238578396
0.530301735193
0.124764622432
0.022824040616
0.0111094095655
0.0105892102802
0.0107702610939
0.0108507040614
0.0109177437891
0.0113588830205
0.0149265775772
0.0467681936111
2.80380111424
2.82808645238
2.83600334047
2.80242027422
2.69850791857
2.49632772898
2.17199192542
1.7194694929
1.17421123619
0.625149316742
0.178195211557
0.0314586116994
0.0118446530597
0.010500223953
0.0106216879331
0.0107116087388
0.010789585396
0.0112638338319
0.0151289048739
0.0484077197302
2.60369800749
2.62950158015
2.64434190449
2.62679978099
2.55091410757
2.38944712803
2.11735273387
1.72210806788
1.22676442076
0.708274983696
0.246042304837
0.0453508649144
0.0132531530321
0.0104866130455
0.0104806419736
0.0105709394296
0.0106604668793
0.0111744633904
0.0153690159437
0.0501087289087
2.42641375789
2.45336200854
2.47379158784
2.46942274266
2.41689414595
2.28993120597
2.06304658252
1.71895540181
1.27034968032
0.780908133094
0.323330390044
0.0668903209138
0.0157916427635
0.0105997987647
0.0103543242629
0.0104300141718
0.0105307988392
0.011091851352
0.0156508132233
0.0518697843031
2.26993957011
2.29772651453
2.32264602976
2.32905704018
2.29591668493
2.19814772322
2.01014942776
1.71124998839
1.30564599816
0.845329333498
0.403695867181
0.0983945379241
0.0202059647134
0.0109272531966
0.0102538597463
0.0102907661411
0.0104011582958
0.0110172550996
0.0159786301677
0.0536887858684
2.13252744535
2.16089697465
2.1893760822
2.20452200426
2.18730908782
2.11415224354
1.95943506212
1.70017371661
1.33399629798
0.903328584078
0.4798226206
0.14167409755
0.0276940647912
0.0116245577687
0.0101978479817
0.0101562431313
0.0102724446467
0.0109522266312
0.0163573294835
0.0555627366411
2.01261653928
2.04134965034
2.07258637008
2.09470912399
2.09052688117
2.03794088604
1.91156142248
1.68697363515
1.35688751654
0.9555001056
0.547939013273
0.195658952135
0.0398437348858
0.0129529463622
0.0102162339462
0.010030864372
0.0101458730538
0.0108986640833
0.0167923590263
0.0574878748458
1.90880857882
1.93772713999
1.97104396006
1.99865765446
2.00505692893
1.96954984386
1.86715515808
1.67274615943
1.37537578052
1.00185445624
0.609112102668
0.256191314304
0.0583300369179
0.0153267234724
0.0103554716868
0.00992066708363
0.0100228953723
0.0108587302566
0.0172896121394
0.0594593675204
1.81984261904
1.84880902446
1.88364058844
1.91551148646
1.93041674733
1.90891693524
1.82660840756
1.65818771026
1.39006402401
1.04259419864
0.665167204317
0.31890374135
0.0842631471761
0.0193656867017
0.01069076729
0.00983471688945
0.00990547902043
0.0108349717312
0.0178549788242
0.0614694593356
1.7445926607
1.7735014172
1.80939991863
1.84454749662
1.86621744426
1.85612541454
1.79057717773
1.64437988696
1.40210769222
1.07888832152
0.71769143847
0.37819323629
0.11860518314
0.0259486705048
0.0113439898306
0.00978703844134
0.00979646278481
0.0108305933687
0.0184945312381
0.0635086888694
1.68240252236
1.71127622473
1.74806368806
1.78593669586
1.81325417351
1.81270349996
1.76104111506
1.63251727615
1.41213742285
1.11113691952
0.766504178904
0.43272255101
0.159686530083
0.03593659282
0.0124818968686
0.0097959385085
0.00969915081113
0.0108493903567
0.0192144633177
0.0655668904816
1.63310864681
1.66205340562
1.69969294265
1.73990348429
1.77182410867
1.77874305921
1.73769735121
1.62264187726
1.42033552265
1.13927234799
0.810862233734
0.483114051346
0.205146246618
0.0499709274075
0.0143229877878
0.00988491581947
0.00961721710029
0.0108956230744
0.0200244733443
0.0676259025483
1.59653051304
1.6255236579
1.66380547644
1.70571844284
1.74085734559
1.75282176155
1.71895249689
1.61454608501
1.42747441564
1.16417201925
0.851261963563
0.530893106286
0.251719154866
0.0690844901595
0.0171874518955
0.010087656659
0.00955550654889
0.0109744483577
0.0209332537916
0.0696603726731
1.57263436763
1.60151474542
1.64010766743
1.68303391949
1.72008754967
1.73491653898
1.70494840124
1.60828529941
1.43381502386
1.1862963522
0.888268948293
0.576807079201
0.297389339079
0.0937692778287
0.0214576647723
0.01044629706
0.00951977728045
0.0110916979607
0.0219410345329
0.0716523028153
1.56171113504
1.59017755448
1.62857548829
1.67159664123
1.70888868301
1.72375736885
1.69482770893
1.60329931215
1.43911254871
1.20570196529
0.922085608805
0.62067794044
0.342006343776
0.124111719131
0.0275706205812
0.0110140877979
0.00951689478223
0.011259735671
0.0230393270418
0.0735842008997
1.56379910415
1.59127052789
1.62846109542
1.66985170135
1.70459385718
1.71634612796
1.68628367892
1.59800723015
1.44240102464
1.22185929365
0.952351954689
0.661931978027
0.38592471308
0.159046840229
0.0368129469852
0.0119112862615
0.00955744877383
0.0114837552153
0.024220485808
0.0754370733663
1.57855917458
1.60392212439
1.63788713819
1.67465977764
1.7036518252
1.710122679
1.67761871786
1.59160901862
1.44368318562
1.23527900898
0.97965796498
0.700898550027
0.429745087902
0.197977209774
0.0506441386981
0.0133639409826
0.00966029758183
0.0117680070291
0.0254741826517
0.0771918145355
1.59597759478
1.61696788647
1.64449190018
1.67311725035
1.69349402576
1.69282559034
1.65676979295
1.57249508753
1.43228072725
1.23675327236
0.996700733792
0.732420958414
0.47038643772
0.238772975995
0.0705780848343
0.0158936400115
0.00986987088211
0.0121178248538
0.0267859789966
0.0788289829851
1.58144854451
1.5975974517
1.61885265494
1.64086197356
1.6558988656
1.65312956859
1.62002127438
1.54480912557
1.41956067212
1.24310540879
1.02295111293
0.775274509958
0.522633978833
0.290060269779
0.101743494075
0.0212310688362
0.0103198998645
0.0125425448183
0.0281317022299
0.0803620904277
0.0256072441022
0.0303770437913
0.0484894410734
0.033371483583
0.0597937704777
0.0375571355952
0.064487309109
0.0403741794968
0.066528580391
0.0429212955542
0.0660313708188
0.0457412776122
0.0644433453313
0.0483684226063
0.0624738755842
0.0508081425953
0.060421100942
0.0530885058841
0.058419466382
0.0551935169249
0.0565223210157
0.057093040189
0.0547428583081
0.0587606062548
0.0530777435664
0.0601794642146
0.0515189017771
0.0613442908046
0.0500588973477
0.0622604783378
0.0486930768646
0.0629421960049
0.0474198678797
0.0634101995976
0.0462391235054
0.0636876479698
0.04514835196
0.063794301789
0.0441586734767
0.0637639927468
0.0432758913543
0.0636337029515
0.0425060352822
0.0634333303978
0.0418544040381
0.0631868699172
0.0413248385472
0.0629138146222
0.0409194716047
0.062630138645
0.0406387514291
0.0623489931958
0.040481587626
0.0620812316177
0.0404455424564
0.061835801408
0.0405270073212
0.0616200079963
0.0407213357739
0.0614396695588
0.0410229381994
0.0612992490096
0.0414254417559
0.0612020222005
0.0419215594791
0.0611508120439
0.0425041688049
0.061147212571
0.043171618733
0.0611940276103
0.0439105464467
0.0612962133777
0.044703226793
0.0614590747816
0.0455330077874
0.0616809439476
0.0463850529858
0.0619554386111
0.0472471946063
0.062273612599
0.0481107256293
0.0626256660942
0.0489706652194
0.0630021569094
0.0498255340382
0.0633950207381
0.0506767497817
0.063798219004
0.0515271317744
0.0642076569543
0.0523806885033
0.0646208606403
0.0532401030886
0.0650368391161
0.0541077759766
0.0654551084577
0.0549824106315
0.0658737924086
0.0558639982936
0.0662905030703
0.0567473738064
0.0667029044296
0.0576282079457
0.067106539733
0.0584990365325
0.0674933739093
0.0593543691221
0.0678581166709
0.0601864629604
0.0681968023822
0.0609867705464
0.0685046212692
0.0617544253695
0.0687809820751
0.0624806065199
0.0690281430365
0.0631614627567
0.0692627141687
0.0637819857424
0.0694588647401
)
;

boundaryField
{
    inletfuel
    {
        type            turbulentIntensityKineticEnergyInlet;
        intensity       0.05;
        value           uniform 13.5;
    }
    inletair
    {
        type            turbulentIntensityKineticEnergyInlet;
        intensity       0.05;
        value           uniform 0.015;
    }
    outlet
    {
        type            inletOutlet;
        inletValue      uniform 1;
        value           nonuniform List<scalar> 
26
(
1.56754758643
1.56858548034
1.57088551441
1.57412944361
1.58144854451
1.5975974517
1.61885265494
1.64086197356
1.6558988656
1.65312956859
1.62002127438
1.54480912557
1.41956067212
1.24310540879
1.02295111293
0.775274509958
0.522633978833
0.290060269779
0.101743494075
0.0212310688362
0.0103198998645
0.0125425448183
0.0281317022299
0.0803620904277
0.0637819857424
0.0694588647401
)
;
    }
    axis
    {
        type            empty;
    }
    leftside
    {
        type            compressible::kqRWallFunction;
        value           nonuniform List<scalar> 
65
(
0.0256072441022
0.0303770437913
0.0157204357912
0.0162091121256
0.0165929977178
0.0303770437913
0.033371483583
0.0375571355952
0.0403741794968
0.0429212955542
0.0457412776122
0.0483684226063
0.0508081425953
0.0530885058841
0.0551935169249
0.057093040189
0.0587606062548
0.0601794642146
0.0613442908046
0.0622604783378
0.0629421960049
0.0634101995976
0.0636876479698
0.063794301789
0.0637639927468
0.0636337029515
0.0634333303978
0.0631868699172
0.0629138146222
0.062630138645
0.0623489931958
0.0620812316177
0.061835801408
0.0616200079963
0.0614396695588
0.0612992490096
0.0612020222005
0.0611508120439
0.061147212571
0.0611940276103
0.0612962133777
0.0614590747816
0.0616809439476
0.0619554386111
0.062273612599
0.0626256660942
0.0630021569094
0.0633950207381
0.063798219004
0.0642076569543
0.0646208606403
0.0650368391161
0.0654551084577
0.0658737924086
0.0662905030703
0.0667029044296
0.067106539733
0.0674933739093
0.0678581166709
0.0681968023822
0.0685046212692
0.0687809820751
0.0690281430365
0.0692627141687
0.0694588647401
)
;
    }
    burnerwall
    {
        type            compressible::kqRWallFunction;
        value           nonuniform List<scalar> 7(71.9320826148 98.099404336 110.186693209 0.0348858134509 0.0458814165846 0.0723666607097 27.9408305745);
    }
    front
    {
        type            wedge;
    }
    back
    {
        type            wedge;
    }
}


// ************************************************************************* //
