/*--------------------------------*- C++ -*----------------------------------*\
| =========                 |                                                 |
| \\      /  F ield         | OpenFOAM: The Open Source CFD Toolbox           |
|  \\    /   O peration     | Version:  2.4.x                                 |
|   \\  /    A nd           | Web:      www.OpenFOAM.org                      |
|    \\/     M anipulation  |                                                 |
\*---------------------------------------------------------------------------*/
FoamFile
{
    version     2.0;
    format      ascii;
    class       volScalarField;
    location    "1000";
    object      N2;
}
// * * * * * * * * * * * * * * * * * * * * * * * * * * * * * * * * * * * * * //

dimensions      [0 0 0 0 0 0 0];

internalField   nonuniform List<scalar> 
1629
(
0.311328248644
0.0419306060541
0.00267086654142
0.323994622966
0.0459934213715
0.00375116441046
0.198495712205
0.0260964804043
0.00334294544507
0.10198905677
0.022101961155
0.0799037222241
0.0571924435461
0.0295882178194
0.125248409791
0.0464861486622
0.0448798967353
0.159078772255
0.0529616784507
0.0648522778176
0.184846363285
0.066400238819
0.0868792568646
0.204803904477
0.081517405962
0.108967501883
0.220758012193
0.0961721999469
0.129860546092
0.234001848631
0.110150430198
0.149020580251
0.245382800103
0.124135458039
0.166504740356
0.25554103047
0.138929679073
0.182795029258
0.265112000261
0.155134258784
0.19861023683
0.274660090157
0.173130960258
0.214647740355
0.284618320148
0.193258635556
0.231644911836
0.29550582833
0.216182461725
0.250593372959
0.308130905787
0.242849333056
0.272665705704
0.323510804005
0.274002948123
0.298873396519
0.342612069166
0.309588728079
0.329522249502
0.365897559296
0.348322983408
0.363699879201
0.392841363118
0.387886538369
0.399384626611
0.421934776002
0.425808755077
0.434249276141
0.451268311706
0.460318126959
0.46649678159
0.479207140217
0.49059523639
0.495176625334
0.504723603369
0.516565110231
0.520052908579
0.52737546759
0.538577856373
0.541330474504
0.547132166084
0.557153431145
0.559416228329
0.56419400585
0.572816266351
0.574754701349
0.578849003802
0.586025895748
0.58775130779
0.591393009418
0.597180881878
0.598767737093
0.602112248756
0.606644973778
0.608140916585
0.611288767018
0.614756771556
0.61618827421
0.61919695194
0.621821988935
0.623199430006
0.626093278958
0.628103547075
0.629426341645
0.632206578527
0.633817611049
0.635078849047
0.637732814813
0.639138491272
0.640328518417
0.642837099801
0.644206103817
0.645315196773
0.647658343459
0.649129049938
0.650149169349
0.652309809362
0.653984469165
0.654910108244
0.656876143619
0.658821232449
0.659649543432
0.661414298518
0.663665215744
0.664395884758
0.665957973277
0.668524250891
0.669159227602
0.670522043483
0.673393014531
0.673936113003
0.675107040342
0.678257674698
0.678714131005
0.679703629399
0.68310034192
0.683476405562
0.684297126831
0.687901774162
0.688204361397
0.688870403843
0.692643119357
0.692879563518
0.693405915174
0.697306784864
0.69748467006
0.69788685638
0.701876782547
0.702003845543
0.702297711948
0.706338280475
0.70642233328
0.706623901152
0.710678249614
0.71072705785
0.710852288527
0.714886574116
0.714907697634
0.714972191741
0.718956953454
0.718957697705
0.71897660183
0.72288522087
0.722872806025
0.722861192316
0.726665668844
0.726647103445
0.726619725539
0.730292399132
0.730274173478
0.730244829855
0.733761464155
0.733749175126
0.733729935559
0.737072705276
0.73707064954
0.737070986707
0.740207370784
0.74021746304
0.740241850938
0.743078118148
0.743098192524
0.743142456134
0.745607198615
0.745633768043
0.745691031979
0.747707411051
0.747736911412
0.747799964228
0.521976914974
0.432520861754
0.388014897588
0.365649293376
0.35433195882
0.349294513402
0.347747424112
0.348039063707
0.349236080026
0.351236433497
0.354146008725
0.357944128703
0.362781377134
0.36919975598
0.378042254971
0.390204597568
0.406223636096
0.425865978736
0.448098446579
0.471468704792
0.494598236602
0.516477365312
0.53651500039
0.554460740658
0.57029722988
0.584135628576
0.596142719175
0.606513960932
0.615464741823
0.623216500489
0.629984278398
0.635967402025
0.641343538885
0.646268796254
0.650880328644
0.655295106734
0.659604637498
0.663873653067
0.668143569045
0.672436377404
0.676758620447
0.681105656252
0.685466145188
0.689825152255
0.694166457704
0.698474020578
0.702732766151
0.706928362009
0.71104765557
0.715079558431
0.71901657676
0.7228544921
0.726586916668
0.730205465238
0.733701509106
0.7370676831
0.740271034069
0.74319927106
0.745766530663
0.747884277793
0.7679994463
0.767999737533
0.767999917478
0.767999939892
0.767999992205
0.767999957633
0.768000004512
0.767999975106
0.76799999861
0.767999984831
0.767999991378
0.767999989312
0.767999990267
0.767999993595
0.767999994446
0.767999996315
0.767999997175
0.767999997863
0.767999998714
0.767999998881
0.767993111696
0.767997369331
0.767999541737
0.767999721215
0.768000001065
0.767999992803
0.76800004112
0.768000011653
0.768000023493
0.767999995332
0.7679999985
0.767999987268
0.767999986878
0.767999990466
0.767999993702
0.767999994933
0.767999996315
0.767999996881
0.767999997602
0.767999998304
0.767322141044
0.767878605302
0.767984809569
0.767997206752
0.76799955934
0.76799999037
0.768000084475
0.768000049174
0.768000050505
0.768000009817
0.768000007499
0.767999990769
0.767999989222
0.767999989942
0.767999993427
0.767999994887
0.767999995254
0.767999995661
0.76799999622
0.767999996988
0.737394388378
0.766509472093
0.767756197125
0.767957772085
0.767996306235
0.767999594147
0.768000073544
0.768000076994
0.768000067515
0.768000026591
0.768000014667
0.767999995807
0.76799999043
0.767999991622
0.767999994423
0.767999995261
0.767999995431
0.767999995363
0.767999995565
0.767999995677
0.667047322741
0.762041951226
0.767179208624
0.767838538912
0.76798436724
0.76799803713
0.767999880543
0.768000079495
0.768000077867
0.768000036917
0.768000021683
0.768000001494
0.767999995498
0.767999993433
0.767999995191
0.767999995706
0.767999994914
0.76799999462
0.767999994618
0.767999994411
0.615327472088
0.751918487819
0.766085799702
0.767638576446
0.767941686552
0.767994377263
0.767999363812
0.768000014641
0.768000076771
0.768000046199
0.768000025991
0.768000006209
0.767999997129
0.767999995871
0.767999996467
0.767999996168
0.7679999953
0.767999994538
0.767999994281
0.767999993874
0.585985769208
0.736807448928
0.764967857348
0.767400814357
0.767880355894
0.767987455761
0.767998250604
0.767999857666
0.768000058409
0.768000047028
0.76800002879
0.768000009038
0.76800000115
0.767999997194
0.767999996938
0.767999996436
0.767999994994
0.767999994123
0.76799999386
0.76799999348
0.565630590531
0.709505987081
0.762880136291
0.767085639603
0.767806612692
0.767969745036
0.767996505776
0.767999547131
0.768000012703
0.76800004539
0.768000029428
0.768000011537
0.768000000974
0.767999998533
0.767999997695
0.767999996766
0.767999995461
0.767999994328
0.767999993927
0.767999993424
0.548589943573
0.690656659297
0.759135386783
0.766633218424
0.767705227119
0.767944346502
0.767993438297
0.767999008779
0.76799992484
0.768000035055
0.76800002906
0.768000011645
0.768000003202
0.767999998756
0.767999997931
0.767999997156
0.767999995591
0.767999994521
0.767999994192
0.767999993779
0.533459400129
0.674400107694
0.753399443692
0.766009501603
0.767569450973
0.767908887764
0.767988709296
0.767998115822
0.767999772553
0.76800001512
0.768000028211
0.768000013115
0.768000001982
0.767999999238
0.767999998552
0.767999997722
0.767999996445
0.767999995207
0.767999994673
0.767999994069
0.520245182067
0.660580100945
0.745669724574
0.765214217158
0.767396425263
0.767861543127
0.767981757797
0.767996749814
0.767999520535
0.767999979443
0.768000024912
0.768000011949
0.768000003027
0.767999999046
0.767999998947
0.767999998618
0.767999997319
0.767999996185
0.767999995616
0.767999995285
0.509057019423
0.650247932544
0.737209754999
0.764172963077
0.767184500896
0.76780819054
0.767966587897
0.767994977842
0.767999147302
0.767999915891
0.768000018029
0.768000012132
0.768000001645
0.767999998909
0.767999999503
0.767999999587
0.767999998568
0.767999997341
0.767999996482
0.767999995905
0.499832847118
0.64242902849
0.730121648506
0.762519521964
0.766923725308
0.767742294863
0.767947383593
0.767992256768
0.767998575486
0.767999814499
0.768000003892
0.768000009931
0.768000001251
0.767999998526
0.768000000082
0.768000000884
0.768000000129
0.767999999034
0.767999998154
0.767999998238
0.492810268307
0.633619064029
0.723577728382
0.760104116681
0.766605590184
0.767661952434
0.767923198531
0.767988385602
0.767997737159
0.767999649011
0.767999979763
0.768000007451
0.768000000518
0.767999998042
0.76800000053
0.768000002063
0.768000001656
0.768000000583
0.767999999263
0.767999999307
0.487077152049
0.622161985991
0.715143114113
0.756591270016
0.766199659854
0.767561741557
0.767892283969
0.767983019806
0.767996518954
0.76799939634
0.767999938831
0.76800000377
0.767999999341
0.767999998167
0.768000001364
0.768000003599
0.768000003723
0.768000002771
0.768000001364
0.768000002705
0.482318556665
0.609525779682
0.700353634087
0.751325477819
0.765652839803
0.767433141741
0.767856897106
0.767971859485
0.767994987521
0.767999035413
0.76799987357
0.767999996096
0.768000001159
0.767999998638
0.7680000024
0.768000005352
0.768000005689
0.768000004452
0.768000002817
0.768000004062
0.478671489305
0.597144157084
0.687510889383
0.744535868897
0.764806647732
0.767260683311
0.767810196585
0.767957396566
0.767992654181
0.767998499166
0.767999769911
0.767999987578
0.76800000122
0.768000001113
0.768000004555
0.768000007563
0.768000008195
0.768000006905
0.768000005279
0.768000008685
0.476693818208
0.586207170792
0.677102520845
0.737492787369
0.76328080632
0.767023920853
0.767749241392
0.767938681567
0.767989338764
0.767997713208
0.767999614889
0.767999964481
0.768000006678
0.768000005049
0.768000007882
0.768000010856
0.768000010813
0.768000009296
0.768000007508
0.76800001092
0.47717652982
0.57793365774
0.666625156762
0.730380787683
0.760851597507
0.766707667371
0.767670333607
0.767914434291
0.767984736143
0.767996596692
0.767999370869
0.76799993373
0.768000007889
0.768000012074
0.768000013353
0.768000014461
0.768000014235
0.768000012248
0.768000010566
0.768000016572
0.480774774728
0.572321670275
0.655922872068
0.722497288429
0.757203641863
0.7662504248
0.76756291768
0.767885516039
0.767975450515
0.767995198945
0.767999028878
0.76799987287
0.768000011425
0.76800002125
0.768000020552
0.768000020148
0.768000018555
0.768000015903
0.768000014475
0.768000019712
0.487756441121
0.569489863321
0.645832386893
0.711806302222
0.752023432736
0.765532028669
0.767408363817
0.767845054061
0.767963132239
0.767993065789
0.767998520209
0.767999780954
0.768000006158
0.768000030795
0.768000029074
0.768000026098
0.768000023391
0.768000020359
0.768000018591
0.768000026605
0.497904401559
0.569641926454
0.638746420204
0.699787617885
0.745336752152
0.764343751407
0.767178541835
0.767787483697
0.767946358945
0.767989994951
0.767997779031
0.76799962511
0.767999990701
0.768000037983
0.768000037331
0.768000033626
0.768000029707
0.768000026217
0.768000025131
0.768000032305
0.510573685436
0.572614284844
0.634806507926
0.691086781729
0.73807590776
0.762497337901
0.766845299615
0.767706797279
0.767923444854
0.767985732355
0.767996709289
0.767999393214
0.767999955232
0.768000040764
0.768000046402
0.768000041101
0.768000036802
0.768000032691
0.76800003108
0.768000040658
0.524887962839
0.57791559743
0.63346540948
0.685396081494
0.731600848211
0.759845141015
0.766383835382
0.767598021833
0.767892709997
0.767979920909
0.767995229759
0.767999048575
0.767999890953
0.768000039879
0.768000052273
0.768000049042
0.768000044619
0.768000040457
0.768000040046
0.768000048502
0.539957130218
0.584948262075
0.634244540781
0.681970332573
0.725944817684
0.756374332966
0.765745461872
0.76745331392
0.767856403146
0.767968361946
0.767993454936
0.767998570758
0.767999796886
0.768000026602
0.768000056899
0.768000056473
0.768000052541
0.768000048888
0.768000047576
0.768000057212
0.555008649063
0.593093013478
0.636636883448
0.680171132458
0.721269252027
0.752314204506
0.764852281184
0.767258557276
0.767807573341
0.767953567446
0.767990838913
0.767997909632
0.767999648347
0.768000001634
0.768000058422
0.768000061376
0.768000059665
0.768000057275
0.768000057171
0.768000066806
0.569450153347
0.601775260651
0.64013731967
0.679624381648
0.717603942987
0.748074080289
0.763635064883
0.766996653569
0.767741972785
0.767934226066
0.767987213569
0.767996983769
0.767999427646
0.767999963541
0.768000051949
0.768000064643
0.768000065837
0.768000065493
0.768000065447
0.768000075055
0.582891319715
0.610526801207
0.6443084453
0.679997200685
0.714864135424
0.744055930854
0.762049913585
0.766647721698
0.767654577596
0.767908749003
0.767982304843
0.767995696843
0.767999121488
0.767999897287
0.768000040747
0.768000064831
0.768000069519
0.768000071672
0.76800007305
0.768000083736
0.595121697189
0.619003524315
0.648799849927
0.680978829207
0.712869726864
0.74050413829
0.76009271763
0.766190674974
0.767540253963
0.76787907016
0.767972737782
0.767994163297
0.767998706422
0.767999800257
0.768000022641
0.768000059854
0.768000070791
0.768000076544
0.768000079922
0.768000090078
0.606064981642
0.626973105968
0.653341116398
0.682313423697
0.711404911371
0.737499984829
0.757871096486
0.765623320312
0.76739730488
0.767841130531
0.767960857444
0.767991973763
0.7679981275
0.76799966765
0.7679999916
0.768000052812
0.768000069439
0.768000078176
0.768000082253
0.76800009569
0.615743281764
0.634312670907
0.657769128758
0.683882398887
0.71045847556
0.735183759474
0.75534082888
0.764929324705
0.767223241852
0.767793673469
0.76794612623
0.767989017582
0.767997346312
0.767999479786
0.767999948602
0.768000041024
0.76800006246
0.768000076418
0.768000083762
0.768000097827
0.624244131567
0.640982625425
0.6619999865
0.685600082162
0.709949706225
0.73325751796
0.752715910266
0.764045580788
0.767005121271
0.767733648176
0.767927567471
0.767985153804
0.767996302649
0.767999216002
0.767999889174
0.768000020617
0.768000054618
0.768000068926
0.768000075874
0.768000092776
0.631686893837
0.646981875952
0.665968058771
0.687385191034
0.709751727639
0.731597424387
0.750195829007
0.762907122723
0.766723508521
0.76765659469
0.767903825031
0.767980153978
0.767994915628
0.76799885984
0.767999802075
0.767999996592
0.768000036983
0.768000054031
0.768000069541
0.768000083769
0.638205467686
0.652334158198
0.669624250108
0.689158705483
0.709750236726
0.73015541834
0.747893756533
0.76147824327
0.766356351221
0.767557377802
0.767876709966
0.767970799482
0.767993318027
0.767998395381
0.76799968476
0.767999959203
0.768000015477
0.768000040668
0.768000050616
0.768000064634
0.643939248708
0.657085324208
0.672941316934
0.690848738896
0.709855246181
0.72889507623
0.745849610839
0.759768228147
0.765875217962
0.76742994884
0.767841750582
0.767959382105
0.767991098064
0.76799778139
0.767999526682
0.767999912695
0.767999993829
0.768000015134
0.768000034945
0.768000050922
0.649026808419
0.661300121041
0.675917163234
0.692408034782
0.710002852436
0.727785403235
0.744033643463
0.757873143801
0.765245406885
0.767267026078
0.767797257771
0.767945393456
0.767988188335
0.767996979759
0.76799931668
0.767999854911
0.767999961933
0.767999991744
0.768000015134
0.768000018375
0.653603211734
0.665060713883
0.678578597346
0.693821398488
0.710159998924
0.726807418766
0.742397725356
0.755939686286
0.764435875861
0.767059371803
0.767741188146
0.76792821252
0.767984516662
0.767995949467
0.767999041606
0.767999778302
0.767999928209
0.767999964738
0.767999986397
0.768000002497
0.657799084846
0.66846443602
0.680980770652
0.69510783701
0.710326024529
0.725962010628
0.740942412001
0.754080138513
0.763443142317
0.766796813287
0.767670836679
0.767907056164
0.767979942262
0.767994644581
0.767998684562
0.767999679364
0.767999885311
0.767999931766
0.767999967462
0.767999952909
0.661737018315
0.671617567369
0.683201654473
0.696316398276
0.710529164443
0.725265790271
0.739644066628
0.752377388869
0.76225428021
0.76646206774
0.767582206374
0.767883486581
0.767971898383
0.767993197828
0.767998239796
0.767999549384
0.767999833647
0.767999897088
0.767999926488
0.767999920564
0.665521879193
0.674619985381
0.685321905394
0.697501715246
0.710794820238
0.724705844999
0.738459695059
0.750843588554
0.760883005423
0.766026654907
0.76746905562
0.767853679696
0.767962376775
0.7679912657
0.767997676663
0.767999383472
0.767999766273
0.767999849025
0.767999895668
0.767999833764
0.669234566027
0.67755354234
0.687409871991
0.698709597676
0.711140873601
0.724268936029
0.737390599781
0.749426556127
0.759431349507
0.765461128659
0.767323203507
0.767815881679
0.767950946049
0.767988809223
0.767996965264
0.767999170488
0.767999684046
0.76799979801
0.767999837211
0.767999760077
0.672933102476
0.68048144556
0.689521709324
0.699981207525
0.711589731654
0.723960767279
0.736451680312
0.748117164267
0.757995056414
0.764745280991
0.767134367638
0.767767869786
0.767937097243
0.76798577016
0.767996078137
0.767998903516
0.767999580814
0.76799973015
0.767999784682
0.767999622359
0.676655186375
0.683449292475
0.691701608899
0.701353553854
0.712168927865
0.723801983615
0.735664411224
0.746932207079
0.756641083453
0.763884478224
0.766889758143
0.76770661315
0.767920426699
0.76798187677
0.767994968856
0.767998568878
0.767999456032
0.767999657225
0.767999708841
0.767999480865
0.680420981489
0.686485863776
0.693980546764
0.702856221887
0.712906314059
0.723814281004
0.735053501239
0.745903878951
0.755435586221
0.762893545394
0.766572623511
0.767627943624
0.767901365645
0.767975777984
0.767993759071
0.767998168343
0.767999305831
0.76799956937
0.767999624949
0.767999287301
0.684236671181
0.68960514869
0.696375930572
0.704507385878
0.713818786631
0.724015218094
0.734636972731
0.745050899955
0.754370157181
0.761842104401
0.766167785591
0.767526577234
0.767877436046
0.767968740535
0.76799222125
0.767997684591
0.767999127691
0.767999470087
0.76799953719
0.767999060591
0.688098715863
0.692809677426
0.698893459468
0.706314050931
0.714913282086
0.724416395383
0.734426484281
0.744383443839
0.753438085223
0.760810054512
0.765668595305
0.767395851995
0.767847276777
0.767960500286
0.7679903407
0.767997105366
0.767998921038
0.767999367322
0.767999414847
0.767998826387
0.691997328249
0.696093885747
0.701530070215
0.708274818633
0.716190241883
0.725021402052
0.734427609679
0.743908201719
0.752647171733
0.759859755496
0.765080068052
0.767227466427
0.767808910143
0.767950716544
0.767988095262
0.767996418323
0.767998679456
0.767999239032
0.767999326844
0.767998514839
0.695919364626
0.699447243033
0.704276932125
0.710382615724
0.717641990989
0.725825601216
0.734638500127
0.74362773565
0.752013066705
0.759051726629
0.764404651665
0.76701124048
0.767759648653
0.767938970143
0.767985448902
0.767995614615
0.76799840836
0.767999131655
0.767999163413
0.767998274904
0.699850515831
0.702856892118
0.707121966818
0.712625513699
0.719256670623
0.726818287078
0.735050626213
0.743537770483
0.751538301258
0.758367059537
0.763696928599
0.766740032778
0.767696128469
0.767925017444
0.767982122803
0.767994666526
0.767998094845
0.767998973327
0.767999091216
0.767997897431
0.703776626328
0.706309426264
0.710051921721
0.71498893586
0.721023518198
0.727988380864
0.735654412021
0.743632681742
0.751221614383
0.757796825952
0.763011514573
0.766413268422
0.767613776453
0.767908377976
0.767977749235
0.767993532543
0.767997748818
0.767998874387
0.767998889498
0.767997700674
0.707683915418
0.709791604973
0.713053680059
0.717458911326
0.722929559179
0.729323425757
0.736439071859
0.743904607562
0.751060008143
0.757345472569
0.762415378831
0.766019513779
0.767506017652
0.767887106631
0.767972522628
0.767992360062
0.767997358734
0.767998686071
0.767998850882
0.767997293153
0.711559290357
0.713290630941
0.716113622644
0.720024218186
0.724963054005
0.730811396298
0.737391934837
0.744341096794
0.751045902635
0.757014285735
0.761919671023
0.765574940412
0.767367124168
0.767859658964
0.76796647929
0.767990992581
0.767996947363
0.7679986118
0.76799862021
0.76799719652
0.715391019588
0.716794549079
0.719220797084
0.722674211074
0.727112994681
0.732440447057
0.738499938348
0.744930104656
0.751171412266
0.756800405098
0.761512430459
0.765114698745
0.767194565127
0.767823899107
0.767959376425
0.767989416809
0.767996484551
0.767998398068
0.767998634421
0.767996810271
0.719170883437
0.720295422561
0.722368912771
0.725404752365
0.72937898558
0.734217383272
0.73978099123
0.745688548218
0.7514502945
0.756713855937
0.761197027172
0.764693243891
0.766978243973
0.767776515843
0.767950811255
0.767987620034
0.767996004014
0.76799836303
0.767998394398
0.767996883207
0.72289540942
0.723792302983
0.725559777777
0.728221236794
0.73176987256
0.736150849453
0.74121800778
0.746589693022
0.751868115483
0.756749453959
0.760975262346
0.764342391922
0.766716871765
0.767713606753
0.767940273602
0.767985549866
0.767995460162
0.76799812815
0.767998475426
0.767996597649
0.726558568476
0.727280642661
0.728790541316
0.731119238111
0.734275831688
0.738216123931
0.742771710687
0.747604377721
0.752399924183
0.756891171363
0.760841590159
0.764059147563
0.766428926724
0.767632265308
0.767927057406
0.767983073975
0.767994895308
0.767998136548
0.767998259526
0.767996900874
0.730150560286
0.730750276905
0.732052014925
0.734092186321
0.736889853237
0.740400161977
0.744436501378
0.748733266894
0.753044722742
0.757137488001
0.760796433066
0.763842012733
0.766154849944
0.767519252092
0.767909521218
0.76798006922
0.767994259156
0.767997900892
0.767998420589
0.767996817846
0.733659247271
0.734186584677
0.735328908252
0.737125512378
0.739594910431
0.742668557577
0.746185577312
0.749959459839
0.753792342669
0.757482818433
0.760837751713
0.763689869125
0.765914794544
0.767374607126
0.767885361587
0.767976517788
0.767993602995
0.767997940804
0.767998287655
0.76799740129
0.737070988632
0.737569897394
0.738595853088
0.74017918213
0.742317689819
0.744950358925
0.747972779944
0.751248523522
0.754618521601
0.757911508414
0.760956610556
0.763599585218
0.765716770989
0.767211156827
0.767848133348
0.767971791597
0.767992793283
0.767997715527
0.767998519971
0.767997641194
0.740338356573
0.740829328567
0.741748857645
0.743116297736
0.744930457138
0.747158368553
0.749731545246
0.752549564409
0.755486185357
0.758398447866
0.761137771106
0.763564252579
0.765559977795
0.767041397732
0.767794458103
0.767964777938
0.767991780683
0.767997716606
0.767998524375
0.767998433645
0.743322314097
0.743795884368
0.744606956241
0.745775350631
0.747308139843
0.749189241227
0.751374111833
0.753789725691
0.756337630963
0.758900637762
0.761351802601
0.76356656222
0.765434960617
0.766875052765
0.767721559078
0.767953993638
0.767990368782
0.76799748653
0.767998801333
0.767998968214
0.745928211814
0.746380365299
0.747098982466
0.748104642034
0.749408721901
0.751005357183
0.752866265406
0.754938994808
0.757147930607
0.75939861444
0.761584597326
0.76359712376
0.76533573735
0.76671908718
0.767628791143
0.767937183982
0.767988288371
0.767997348264
0.767998892152
0.767999685167
0.748064687737
0.74848670871
0.749120990815
0.749988278389
0.751102296587
0.752463969326
0.754057016996
0.755845295278
0.757772349336
0.759763448388
0.761730230459
0.763577774276
0.765213156162
0.766554626434
0.7675119053
0.767910166427
0.767984920077
0.767996971673
0.767999044313
0.768000293225
0.767999923785
0.767999924882
0.767999944163
0.767999930918
0.767999956442
0.767999936342
0.767999963449
0.767999948935
0.767999970354
0.767999963529
0.767999976014
0.767999976496
0.76799998051
0.767999988284
0.767999984444
0.767999999654
0.767999988228
0.768000010714
0.767999992681
0.768000022024
0.767999997606
0.768000032598
0.768000001736
0.768000043234
0.768000006161
0.76800005328
0.768000011095
0.768000064521
0.768000019758
0.768000074099
0.768000023657
0.768000084091
0.768000031172
0.768000092495
0.768000035646
0.768000103739
0.768000056373
0.768000113775
0.768000067843
0.768000126126
0.768000095556
0.768000137322
0.768000110385
0.768000150737
0.768000147273
0.768000163599
0.768000170642
0.76800017556
0.768000199997
0.768000186648
0.768000231838
0.768000195251
0.768000250163
0.768000202315
0.768000287321
0.768000200319
0.76800022875
0.768000184553
0.768000213195
0.768000152299
0.768000066507
0.768000101023
0.768000056203
0.768000043842
0.767999885006
0.767999970574
0.767999871128
0.767999890409
0.767999583964
0.767999775637
0.767999489244
0.767999629361
0.767998908319
0.767999390619
0.767998603348
0.767999085932
0.767997744369
0.767998642051
0.767997144869
0.767998112189
0.767996148354
0.767997454196
0.767995225382
0.767996711162
0.767994374088
0.767995929845
0.767993158513
0.767995061665
0.767992800935
0.76799432054
0.767991360188
0.767993462008
0.767991821604
0.767992957806
0.76799024156
0.767992258475
0.76799174771
0.767992179529
0.767990120197
0.767991777937
0.767992855636
0.767992306217
0.767991377018
0.767992361057
0.767995246902
0.767993615191
0.767994215607
0.767994281191
0.767998928463
0.767996305336
0.767998764011
0.76799770285
0.768003015935
0.768000097828
0.768003477584
0.768001821432
0.768005380623
0.768003552001
0.768005974444
0.768004723307
)
;

boundaryField
{
    inletfuel
    {
        type            fixedValue;
        value           uniform 0;
    }
    inletair
    {
        type            fixedValue;
        value           uniform 0.768;
    }
    outlet
    {
        type            zeroGradient;
    }
    axis
    {
        type            empty;
    }
    leftside
    {
        type            zeroGradient;
    }
    burnerwall
    {
        type            zeroGradient;
    }
    front
    {
        type            wedge;
    }
    back
    {
        type            wedge;
    }
}


// ************************************************************************* //
