/*--------------------------------*- C++ -*----------------------------------*\
| =========                 |                                                 |
| \\      /  F ield         | OpenFOAM: The Open Source CFD Toolbox           |
|  \\    /   O peration     | Version:  2.2.x                                 |
|   \\  /    A nd           | Web:      www.OpenFOAM.org                      |
|    \\/     M anipulation  |                                                 |
\*---------------------------------------------------------------------------*/
FoamFile
{
    version     2.0;
    format      ascii;
    class       volScalarField;
    location    "1000";
    object      N2;
}
// * * * * * * * * * * * * * * * * * * * * * * * * * * * * * * * * * * * * * //

dimensions      [0 0 0 0 0 0 0];

internalField   nonuniform List<scalar> 
1629
(
9.95692639449e-10
3.07127268062e-09
1.13548963565e-08
1.80990436749e-07
7.18067424743e-07
3.82486474648e-06
1.37419483439e-05
8.63709530451e-05
0.00067301283044
0.000739876559949
0.0069010584788
0.0870915288175
0.0026787440596
0.0182000432112
0.13495015232
0.00639662063447
0.0334903121327
0.171317232308
0.0126826986883
0.0525665923454
0.199789390414
0.0225432853545
0.0749189098863
0.222427350492
0.037132495235
0.099843209041
0.241291637092
0.0574769238275
0.126572642196
0.258127865858
0.0840383626339
0.154507376267
0.274242587912
0.116349024304
0.183360172125
0.290520227722
0.153013522267
0.213052790546
0.307473764797
0.192146190149
0.24350255263
0.325406778364
0.231926160685
0.274453357457
0.344429710093
0.270938566431
0.30545330429
0.364429514278
0.308246503179
0.335959731566
0.385113567541
0.343303012854
0.365455199165
0.406078973026
0.375848345058
0.393544750316
0.426931036504
0.405821065449
0.419984467939
0.447341307193
0.433276837906
0.444650057813
0.467045371792
0.458335571437
0.467504549823
0.485846529074
0.481149871191
0.488572559682
0.503615084418
0.501894844003
0.507929697569
0.52029241021
0.520759852583
0.525689363326
0.535880175585
0.53793224466
0.541979398403
0.550411428052
0.553587858563
0.55692826589
0.563934405877
0.567886295484
0.570657760537
0.576503991987
0.580974039817
0.583285129488
0.58818432219
0.592985849862
0.594922966043
0.599046972829
0.604040045853
0.60567215224
0.609159764481
0.614239124191
0.615621244183
0.61858428068
0.623671368208
0.624847357424
0.627375661882
0.632411814334
0.633416615287
0.635582256288
0.640526573191
0.641388332889
0.643249733019
0.648075762834
0.648817584406
0.650422985048
0.655112708465
0.655753744796
0.657143332453
0.66168450741
0.662240681521
0.663448004726
0.667832831917
0.668317363011
0.669370388486
0.673594171833
0.674017995996
0.674939964515
0.679000346367
0.679372480083
0.680182648077
0.684079377095
0.68440724251
0.685121542246
0.688856461748
0.689146175257
0.689777796056
0.693354859403
0.693611480899
0.694171368737
0.697596601119
0.697824349666
0.698321642134
0.701602929923
0.701805368762
0.702247775232
0.705394295925
0.705574478737
0.705968588516
0.708990181722
0.709150759009
0.709502271778
0.712408955003
0.712552253891
0.71286615964
0.715667675865
0.715795755072
0.716076463083
0.718781680664
0.718896351934
0.719147746739
0.721764467985
0.721867306926
0.722092778655
0.72462788817
0.724720252184
0.724922740004
0.727381833659
0.727464865088
0.727646862956
0.730034612077
0.730109235482
0.730272782962
0.732596257876
0.732663249309
0.732810086546
0.735077438278
0.735137422391
0.735268963795
0.737487266895
0.737540732725
0.737658087792
0.739833621706
0.739881017862
0.73998518058
0.742120610092
0.742162464374
0.742254554438
0.744341536848
0.744378522207
0.744459922059
0.746469965686
0.74650287369
0.746575192268
0.748363728858
0.748392856114
0.748456707243
0.541505878791
0.467155300153
0.425141888852
0.40382029205
0.393262417918
0.388927126021
0.388428251764
0.390462849427
0.39437895147
0.399854102695
0.406966030051
0.415810215371
0.4263169637
0.438269666934
0.45133443694
0.465176537913
0.479483764635
0.493954741641
0.508320319469
0.522361293169
0.535927977251
0.548936172428
0.56133693201
0.573102720817
0.584221013762
0.594700435413
0.604568590336
0.613856625861
0.622595232392
0.630813658263
0.638538865837
0.645799923603
0.652629241562
0.659058125825
0.665115455857
0.670827535639
0.676217819889
0.681307115648
0.686114225334
0.690656698756
0.694951494789
0.699015525731
0.702865964191
0.706520055733
0.709994738792
0.713306363309
0.716470358162
0.719500602377
0.72240923169
0.725206860711
0.727902157089
0.730502171418
0.733016113953
0.735453723537
0.737823223854
0.740132121077
0.742384825551
0.744575338233
0.746677835083
0.748547363142
0.767999970181
0.767999989255
0.767999994172
0.767999996865
0.767999998361
0.767999999139
0.767999999328
0.767999999473
0.767999999448
0.76799999956
0.767999999543
0.767999999632
0.767999999625
0.767999999659
0.767999999678
0.767999999719
0.76799999977
0.767999999799
0.767999999814
0.767999999872
0.767994600729
0.76799888941
0.767999763945
0.767999932298
0.767999980301
0.767999994749
0.767999998268
0.767999999049
0.767999999128
0.767999999273
0.767999999294
0.767999999395
0.767999999399
0.767999999439
0.767999999459
0.767999999499
0.767999999619
0.767999999663
0.767999999683
0.767999999761
0.767512356531
0.767944872482
0.767994125018
0.767998982029
0.767999801274
0.767999962537
0.767999993311
0.767999998327
0.767999998945
0.767999999138
0.767999999187
0.767999999284
0.767999999285
0.767999999325
0.767999999332
0.767999999382
0.767999999505
0.767999999553
0.767999999581
0.767999999666
0.742870265251
0.767125291219
0.767849129522
0.767986239467
0.76799818228
0.767999745915
0.767999964296
0.767999994845
0.767999998538
0.76799999904
0.767999999126
0.767999999218
0.767999999216
0.767999999248
0.767999999248
0.767999999274
0.767999999442
0.767999999492
0.76799999952
0.767999999538
0.710420846681
0.765197760035
0.767480688607
0.767908235133
0.767991488687
0.767998873872
0.767999849674
0.767999980892
0.76799999708
0.767999998888
0.767999999103
0.767999999196
0.767999999192
0.76799999922
0.767999999208
0.76799999925
0.767999999393
0.767999999442
0.767999999467
0.767999999429
0.683056384449
0.760479341578
0.766889598042
0.767785833831
0.767966686579
0.767996804886
0.767999553848
0.767999940955
0.767999992526
0.76799999848
0.767999999095
0.767999999211
0.767999999209
0.767999999228
0.76799999921
0.767999999224
0.767999999397
0.767999999441
0.767999999456
0.767999999379
0.658470215231
0.751702986458
0.76621729803
0.767634614981
0.767929990588
0.767992913288
0.767998952525
0.76799985139
0.767999981015
0.767999997309
0.767999999046
0.767999999254
0.76799999926
0.767999999274
0.767999999245
0.76799999928
0.767999999412
0.767999999449
0.76799999945
0.767999999334
0.635569934815
0.741554912989
0.765337344797
0.767461211086
0.767882925382
0.767986914215
0.767997929715
0.767999683286
0.767999956602
0.767999994466
0.76799999884
0.767999999304
0.767999999335
0.767999999342
0.767999999314
0.767999999316
0.767999999471
0.767999999498
0.767999999486
0.767999999354
0.615238804007
0.732123432063
0.76373440573
0.767240771157
0.767830393984
0.767973014551
0.767996519807
0.767999413394
0.767999911765
0.767999988489
0.767999998263
0.76799999933
0.767999999422
0.767999999432
0.767999999393
0.767999999425
0.76799999953
0.767999999547
0.767999999519
0.767999999366
0.597207331456
0.722229543273
0.761015187228
0.766949898691
0.767763529721
0.767954789625
0.767994257755
0.767998982412
0.767999834742
0.767999977028
0.767999996974
0.767999999285
0.767999999511
0.767999999526
0.767999999497
0.767999999494
0.767999999621
0.767999999628
0.767999999583
0.767999999443
0.581146198178
0.711419135207
0.756748526426
0.766589143203
0.767680026471
0.767931080129
0.767990944882
0.767998320846
0.767999708765
0.767999956563
0.767999994338
0.767999999088
0.767999999584
0.767999999625
0.767999999587
0.767999999624
0.767999999701
0.7679999997
0.76799999964
0.767999999492
0.567025583155
0.699765302333
0.751108689197
0.766089375393
0.76757197807
0.767899878112
0.767986206998
0.767997338776
0.767999511448
0.767999921781
0.767999989423
0.767999998588
0.767999999626
0.767999999714
0.767999999697
0.767999999699
0.767999999799
0.767999999789
0.76799999972
0.767999999601
0.554769697034
0.687598174748
0.745174033319
0.765169350469
0.76742429282
0.767863826445
0.767975844227
0.767996090216
0.767999225504
0.767999866259
0.767999980697
0.767999997572
0.767999999601
0.767999999797
0.767999999775
0.767999999824
0.767999999879
0.767999999867
0.76799999979
0.76799999967
0.545383537412
0.674392842115
0.738892512434
0.763616501221
0.767230766984
0.767817585384
0.767962487027
0.767994170014
0.767998800746
0.767999779369
0.767999966
0.76799999562
0.767999999463
0.76799999985
0.767999999871
0.767999999887
0.767999999965
0.767999999952
0.76799999987
0.767999999797
0.538906839523
0.661109627507
0.731558869874
0.761067217436
0.766966498379
0.76775678579
0.767944888748
0.767991399647
0.767998173734
0.767999645663
0.767999941751
0.767999992123
0.767999999083
0.767999999882
0.767999999921
0.76799999999
0.768000000033
0.768000000021
0.767999999944
0.767999999875
0.535043241624
0.648669903663
0.723107957073
0.757137590615
0.766606126212
0.767674957137
0.767920992636
0.76798741737
0.767997256049
0.767999442477
0.767999902763
0.767999985987
0.767999998371
0.767999999841
0.767999999994
0.768000000034
0.7680000001
0.768000000089
0.768000000014
0.768000000002
0.533522118284
0.637714428223
0.713911968151
0.751906823908
0.766044912641
0.767557390038
0.767891066187
0.767978559045
0.767996067752
0.767999149206
0.767999841876
0.767999975785
0.767999996985
0.767999999752
0.768000000015
0.768000000117
0.768000000149
0.768000000143
0.768000000083
0.768000000079
0.534060445174
0.628573853754
0.704338126881
0.746232996077
0.764979854822
0.767381276022
0.767848354845
0.76796637127
0.767994191672
0.767998709607
0.767999747635
0.767999958927
0.767999994622
0.767999999503
0.768000000058
0.76800000014
0.768000000198
0.768000000191
0.768000000135
0.768000000202
0.536474020105
0.621881474176
0.694502552126
0.740342679675
0.763136688872
0.767134194515
0.767789882971
0.767949690364
0.767991441329
0.767998056631
0.767999602892
0.767999931802
0.767999990491
0.76799999904
0.768000000002
0.768000000208
0.768000000228
0.768000000224
0.768000000197
0.768000000275
0.540537661756
0.617334887168
0.685489990123
0.733908789928
0.760181623791
0.766775133617
0.767707965341
0.767926335708
0.767987450682
0.767997098204
0.767999383594
0.767999888554
0.767999983571
0.767999998108
0.767999999975
0.768000000209
0.768000000265
0.768000000253
0.768000000233
0.768000000381
0.545968846511
0.614639435468
0.677703422157
0.727074875729
0.755971858078
0.766236177579
0.76759056112
0.767896674824
0.767978559258
0.767995857051
0.767999067967
0.767999821761
0.767999972102
0.76799999658
0.767999999773
0.768000000271
0.768000000291
0.768000000271
0.768000000284
0.768000000443
0.552461908583
0.613528657745
0.671382584756
0.720063619312
0.750754152355
0.765412276425
0.767419866523
0.767853403206
0.767966078523
0.767993881029
0.767998594504
0.767999718696
0.767999953593
0.76799999385
0.767999999548
0.768000000263
0.768000000318
0.768000000285
0.768000000304
0.768000000534
0.55972347302
0.613769084534
0.666622369807
0.713155090801
0.745543217462
0.76394256937
0.76716650665
0.767791422621
0.767948474468
0.76799094819
0.767997889082
0.767999561074
0.767999923892
0.767999989403
0.76799999899
0.768000000277
0.768000000328
0.768000000286
0.768000000347
0.768000000589
0.56750767878
0.615149771679
0.663204581276
0.706952163376
0.740581325799
0.761608985694
0.766809615835
0.767706264758
0.767924011913
0.767986723319
0.767996861408
0.767999324107
0.767999877242
0.767999981916
0.767999998128
0.768000000189
0.768000000331
0.768000000284
0.768000000357
0.768000000661
0.575624951027
0.617502237574
0.661014662489
0.701769007391
0.735689438231
0.758356435244
0.76629001984
0.767587274808
0.767893541412
0.767977447412
0.767995551626
0.767998988016
0.767999806056
0.767999969937
0.767999996498
0.768000000062
0.768000000312
0.768000000276
0.768000000388
0.768000000707
0.583913797514
0.620649669299
0.659915711049
0.697700945106
0.730855217409
0.754404965699
0.765505541523
0.767417172791
0.767849855129
0.767964674659
0.767993498656
0.767998492162
0.767999698213
0.76799995071
0.76799999387
0.767999999753
0.768000000275
0.768000000246
0.768000000398
0.768000000767
0.592233475066
0.62441103637
0.659738254107
0.694617897572
0.72626771456
0.750167243898
0.764303393279
0.767170708098
0.767787601309
0.767946846445
0.76799048896
0.767997765462
0.767999536102
0.767999920661
0.767999989385
0.767999999227
0.768000000163
0.768000000233
0.768000000428
0.768000000824
0.600463984031
0.62861093696
0.660295955675
0.692324418435
0.722111339832
0.746146458154
0.762544716895
0.766827570626
0.767702812153
0.76792252104
0.767986244609
0.767996729692
0.767999297964
0.767999874278
0.767999982183
0.76799999826
0.768000000055
0.768000000188
0.768000000457
0.768000000892
0.608522157314
0.633120447253
0.661465922116
0.690755553512
0.718607032966
0.742617724894
0.760158454538
0.766366124688
0.767591812902
0.76789381582
0.767977401235
0.767995459675
0.767998970466
0.767999805652
0.767999970747
0.767999996761
0.767999999822
0.768000000207
0.768000000509
0.768000000961
0.616361362142
0.63785747377
0.663178852541
0.689903917234
0.715911510961
0.73933410262
0.757314380779
0.765718635494
0.767442976353
0.767855073355
0.767965879486
0.767993553089
0.76799850567
0.767999704977
0.767999953176
0.767999994267
0.767999999593
0.768000000174
0.768000000546
0.768000001016
0.623949105102
0.642745580019
0.665346634566
0.689686680553
0.713893313233
0.736341010208
0.754304360365
0.764791961541
0.767238560508
0.767802379301
0.767950549127
0.767990861248
0.767997848126
0.767999558742
0.767999926384
0.767999990432
0.767999999085
0.768000000167
0.768000000532
0.768000001082
0.631260582627
0.647711513141
0.667871751855
0.689996827038
0.712435391152
0.733694026464
0.751391531959
0.763503879482
0.76695579751
0.76773087128
0.767930021215
0.767987154668
0.767996934648
0.76799934957
0.767999886445
0.767999984287
0.7679999984
0.767999999995
0.768000000547
0.768000001071
0.638277001585
0.65268896708
0.670660876485
0.690732273748
0.711449341904
0.731426417767
0.74872563071
0.761843379588
0.76656653441
0.767634991517
0.767905621943
0.767979735579
0.767995835451
0.76799906835
0.767999828697
0.767999975046
0.767999997116
0.767999999873
0.768000000475
0.768000001038
0.644984776456
0.657620657506
0.673630484118
0.691802474454
0.710863887589
0.729546254382
0.746397544234
0.759913145183
0.766049274237
0.767510419301
0.767873819418
0.76797043912
0.767994246639
0.767998682407
0.767999746821
0.76799996111
0.76799999525
0.767999999546
0.768000000388
0.768000001118
0.651381082436
0.662469296913
0.676725190382
0.693154980754
0.710659822373
0.728120579946
0.744407787223
0.757860577415
0.765380894614
0.767352169239
0.767833380092
0.767958843633
0.767992111549
0.767998159821
0.767999632269
0.76799994073
0.767999992231
0.767999998986
0.768000000364
0.768000000301
0.657474121139
0.667216657752
0.679913275841
0.694759477652
0.710818646534
0.727116693741
0.742697342429
0.75586131236
0.764519464512
0.767148240629
0.767781851319
0.767944290986
0.767989343884
0.767997465455
0.767999474698
0.767999911274
0.76799998769
0.767999998329
0.767999999524
0.767999998753
0.663275526108
0.671849728685
0.683164631403
0.696577158329
0.711296085594
0.726473366488
0.741253774323
0.754031541345
0.76345184191
0.76688245185
0.767715713294
0.767925876712
0.767985798296
0.767996559922
0.767999261619
0.767999869647
0.7679999811
0.767999997197
0.767999998775
0.767999995761
0.668797549516
0.67635745292
0.686449121265
0.698564886193
0.712040879213
0.726137820253
0.740078813875
0.752441099661
0.762199322411
0.766534686669
0.767630439514
0.767904791715
0.767979260471
0.76799552691
0.767998988368
0.76799981239
0.767999971521
0.767999995579
0.76799999792
0.76799999167
0.674052233283
0.680730669077
0.689739005175
0.700681783783
0.713005556283
0.726066800816
0.739162625433
0.751074605155
0.760848709216
0.766084455455
0.767520518858
0.767877714113
0.767971339697
0.76799410115
0.767998630171
0.767999734497
0.767999957943
0.767999993384
0.767999996447
0.767999987671
0.679050857284
0.684962047206
0.693010233449
0.70289213307
0.714149587199
0.726224776569
0.738487604065
0.749902670152
0.759507145961
0.765514934776
0.767379410294
0.767843165253
0.767961658245
0.767992240852
0.767998162899
0.76799962993
0.767999938816
0.76799999013
0.767999994962
0.767999980816
0.683803882646
0.689046088988
0.696242837657
0.70516604664
0.715439532543
0.72658269897
0.73803590859
0.748914702355
0.758255381245
0.764821466953
0.767199435557
0.76779937658
0.767949781657
0.767989894837
0.767997562983
0.767999491331
0.767999912641
0.767999985837
0.767999992763
0.76799997328
0.688321347611
0.692979312923
0.699421018391
0.707479365143
0.716848441183
0.72711717428
0.737792738404
0.748110653867
0.757138212825
0.764022951514
0.766971365025
0.76774406086
0.767935178925
0.767986985842
0.767996807169
0.767999311021
0.767999877177
0.76799997988
0.767999989263
0.767999961069
0.692613374584
0.696760345179
0.702532784655
0.709812751733
0.718354306167
0.727808706959
0.737745754667
0.747496686762
0.756197841162
0.763145405296
0.766682792231
0.767674069744
0.767918717385
0.767982037463
0.767995964608
0.767999086915
0.767999830537
0.767999971765
0.767999986835
0.767999944436
0.696690607266
0.700389868677
0.705569281391
0.712150239402
0.719937629679
0.728638021582
0.737878541093
0.747066870984
0.755419150497
0.762251317694
0.766322266611
0.767585285183
0.767898140893
0.767976246592
0.767994854527
0.767998804719
0.767999770298
0.767999962398
0.767999978276
0.767999926261
0.700564631752
0.703870758485
0.7085245969
0.714478722201
0.721580701919
0.729585498504
0.738171278982
0.746806183885
0.754780867061
0.76140520783
0.765884426891
0.767472406115
0.767872368977
0.767969404986
0.767993459711
0.767998451299
0.767999692707
0.767999947301
0.767999978722
0.767999891956
0.704248230826
0.707208260021
0.711395981717
0.716788494068
0.723269052467
0.73063492441
0.738602856715
0.746698494074
0.754274798345
0.760654602832
0.765375576173
0.767328283452
0.767839772399
0.767961220231
0.767991754173
0.767998013107
0.767999595517
0.767999935266
0.767999960019
0.767999876192
0.707755104663
0.710409566056
0.714183315301
0.719072577157
0.724990295863
0.731770362437
0.739154033869
0.746729453009
0.75390225482
0.760043328995
0.764802699879
0.767143350593
0.767797893927
0.767951279098
0.767989697707
0.767997479577
0.76799947294
0.767999907956
0.767999971315
0.767999819022
0.711099343963
0.713483106881
0.716888201274
0.72132550049
0.726732187647
0.73297266168
0.739808269959
0.746883059488
0.753653345264
0.759544669409
0.764214744555
0.766910355364
0.767743459414
0.767939010637
0.767987234329
0.767996834072
0.76799932427
0.767999897279
0.767999937993
0.767999837877
0.714295067767
0.716438233564
0.719513991399
0.72354423647
0.728485857929
0.73422654564
0.74054938814
0.747143822186
0.753515138224
0.759139855917
0.763657946487
0.766627753968
0.767671887829
0.767923527857
0.767984262812
0.767996067785
0.767999141755
0.76799985107
0.767999975573
0.767999773472
0.717355972388
0.719284721024
0.722065400912
0.725728108302
0.730245920849
0.735518974163
0.741362658439
0.747497463435
0.753475679321
0.758821917257
0.763177152714
0.76629397533
0.767576976564
0.767904611729
0.767979535357
0.767995218943
0.767998929316
0.767999849041
0.767999931269
0.767999898271
0.720294470306
0.722031533166
0.724546736829
0.727875958345
0.732002846515
0.736841455732
0.742235176568
0.747930299035
0.753523397598
0.758586682348
0.762783121367
0.765922467857
0.767452879329
0.767879170581
0.767973856266
0.767994151093
0.767998673722
0.767999778666
0.768000016514
0.767999889799
0.723121391144
0.724686488723
0.7269617606
0.729986660503
0.733750579023
0.738185327471
0.743155379568
0.748429778728
0.753646916136
0.758425768503
0.762456291837
0.765543434459
0.767297003026
0.767844640845
0.767966822143
0.767992811001
0.767998367424
0.76799978946
0.767999985784
0.768000224977
0.725846217602
0.72725663309
0.729314118503
0.732058244107
0.735486657795
0.739544784107
0.744115104307
0.748986872039
0.753837739439
0.758331385031
0.762183180887
0.765182708391
0.767112086441
0.767797890778
0.767957815362
0.767991166947
0.767997999026
0.767999697377
0.768000134323
0.768000402784
0.728476473624
0.729746864228
0.731605010837
0.734091145557
0.737209003842
0.74091537051
0.745108223198
0.749594908553
0.754089723208
0.758298463244
0.761961511147
0.764871710709
0.766893939968
0.767735188763
0.767945934536
0.76798910033
0.767997549588
0.767999704751
0.768000173807
0.768001025244
0.731018052431
0.732161306232
0.73383760523
0.736087244736
0.738918808389
0.742298687445
0.74613786633
0.75025654757
0.75440427604
0.758327331248
0.761792400206
0.764607506413
0.766654325541
0.767654768663
0.767930179021
0.767986526089
0.767997011256
0.767999609873
0.76800036941
0.768001545828
0.733479483073
0.734507664483
0.736018739665
0.738052573357
0.740621219113
0.743697999296
0.747200968717
0.750965007631
0.754776154545
0.75841500657
0.761674609513
0.764380814539
0.766407731509
0.767557215427
0.767909404781
0.767983268056
0.767996352391
0.767999554926
0.768000547976
0.768002342278
0.735869530431
0.736793018228
0.738153204649
0.7399887663
0.742313440589
0.745104693752
0.748284910523
0.751708428156
0.755194689943
0.758554063689
0.761603999945
0.764186914649
0.766174368998
0.767437859077
0.767882708919
0.767978506232
0.767995584849
0.767999488242
0.768000704814
0.768003206462
0.738195396968
0.739022730495
0.740244078196
0.741896397314
0.743993721569
0.74651525624
0.749386938041
0.752484467622
0.755657212619
0.758742325268
0.761579556649
0.764026732048
0.765963494225
0.767295302747
0.767847850334
0.767972637425
0.767994619854
0.767999266333
0.768001023705
0.768003695562
0.740463993813
0.741202375947
0.74229507619
0.743776908677
0.745660756776
0.747924256764
0.750500507438
0.753287522686
0.756159361254
0.758976887779
0.76160018241
0.763901894972
0.765773951198
0.767133320849
0.767803503495
0.767965282035
0.767993419518
0.767999225328
0.768000971119
0.768004489666
0.742679728063
0.743335375298
0.744307464995
0.745627951711
0.747306506822
0.749321046536
0.751616414122
0.754109204722
0.756694223916
0.759252953982
0.761663758371
0.763813449797
0.765605921501
0.766964436565
0.767742408032
0.767955774719
0.767991959437
0.767998727346
0.768001254991
0.76800391459
0.744836985448
0.745415088309
0.746271680359
0.747434948393
0.748912904591
0.75068848401
0.752718101123
0.754933739008
0.757247697279
0.759559218665
0.761762813729
0.763758202228
0.765459268547
0.766795550134
0.767659524995
0.767942611164
0.767990067626
0.767998611937
0.768000802509
0.768003836976
0.746910321654
0.747415573112
0.74816064159
0.749171769944
0.750458705597
0.752010268528
0.753792690454
0.755750819899
0.757811684974
0.759889762095
0.761893779587
0.763735132096
0.765336045986
0.766632979244
0.767552991159
0.767922844016
0.767987624646
0.767997843767
0.768000677259
0.768001777128
0.748752455795
0.749187802024
0.749825985454
0.750692965397
0.751801366507
0.753146460378
0.754704150841
0.756431255004
0.758268020413
0.760142103282
0.761974079974
0.763684300641
0.765200274689
0.766462294453
0.767419367424
0.767889563888
0.767983939722
0.767997158946
0.76800008295
0.767999350579
0.767999990281
0.767999988678
0.767999992539
0.767999989163
0.767999993621
0.767999989843
0.767999994145
0.76799999137
0.767999994878
0.767999993315
0.767999995521
0.767999994948
0.767999996042
0.76799999637
0.767999996444
0.767999997608
0.767999996742
0.767999998716
0.767999996974
0.767999999689
0.76799999714
0.768000000547
0.767999997245
0.768000001262
0.767999997248
0.768000001869
0.767999997215
0.768000002353
0.767999997107
0.768000002752
0.767999996976
0.768000003044
0.767999996691
0.768000003272
0.767999996408
0.768000003432
0.767999996025
0.768000003575
0.767999995706
0.768000003679
0.767999995148
0.768000003792
0.767999994641
0.768000003905
0.767999993914
0.768000004072
0.767999993368
0.76800000428
0.767999992475
0.768000004547
0.767999991696
0.768000004872
0.767999990605
0.768000005251
0.767999989599
0.768000005651
0.767999987736
0.768000005919
0.767999985118
0.76800000615
0.767999983307
0.768000006119
0.767999975937
0.76800000445
0.767999955716
0.767999999274
0.767999919444
0.767999989319
0.767999880021
0.767999975351
0.767999847603
0.767999957772
0.767999788416
0.767999933398
0.767999737655
0.767999902151
0.767999632509
0.767999857041
0.767999524886
0.767999797881
0.767999379693
0.767999724453
0.767999152313
0.767999625262
0.767999068729
0.767999548311
0.767998658395
0.767999428394
0.767998934057
0.767999458342
0.767998352378
0.767999420757
0.767999507542
0.767999800804
0.767998958111
0.768000078129
0.768001514552
0.768001132346
0.768001520991
0.768002054192
0.768005407556
0.768003929603
0.768006707057
0.768005690533
0.768010253242
0.76800781394
0.768013110094
0.768009956532
0.768012821108
0.768010628599
0.768016081934
0.76801165238
0.768008796273
0.768008791137
0.768010088096
0.76800695853
0.767996677838
0.768000205383
0.767987395916
0.76799294328
)
;

boundaryField
{
    inletfuel
    {
        type            fixedValue;
        value           uniform 0;
    }
    inletair
    {
        type            fixedValue;
        value           uniform 0.768;
    }
    outlet
    {
        type            zeroGradient;
    }
    axis
    {
        type            empty;
    }
    leftside
    {
        type            zeroGradient;
    }
    burnerwall
    {
        type            zeroGradient;
    }
    front
    {
        type            wedge;
    }
    back
    {
        type            wedge;
    }
}


// ************************************************************************* //
