/*--------------------------------*- C++ -*----------------------------------*\
| =========                 |                                                 |
| \\      /  F ield         | OpenFOAM: The Open Source CFD Toolbox           |
|  \\    /   O peration     | Version:  2.2.x                                 |
|   \\  /    A nd           | Web:      www.OpenFOAM.org                      |
|    \\/     M anipulation  |                                                 |
\*---------------------------------------------------------------------------*/
FoamFile
{
    version     2.0;
    format      ascii;
    class       volScalarField;
    location    "1000";
    object      O2;
}
// * * * * * * * * * * * * * * * * * * * * * * * * * * * * * * * * * * * * * //

dimensions      [0 0 0 0 0 0 0];

internalField   nonuniform List<scalar> 
1629
(
1.6563398123e-12
2.85607592372e-12
1.16286912812e-11
6.2458806006e-10
2.31958883048e-09
1.68612097966e-08
1.2908521118e-07
9.39297519054e-07
1.11530038459e-05
1.36371058768e-05
0.000180895332267
0.00420194296874
2.49346373413e-05
0.000212405221721
0.00248801499613
2.99190657661e-05
0.000178299303726
0.00127317562112
2.97386873431e-05
0.00013062608503
0.000632086760126
2.64987465811e-05
8.87728999424e-05
0.000313861761702
2.19608775716e-05
5.77990617023e-05
0.000161059869997
1.73379317135e-05
3.7329240008e-05
9.0722133553e-05
1.34008417705e-05
2.51792674712e-05
6.02528518645e-05
1.05469717091e-05
1.87090093451e-05
4.71703961932e-05
8.77079582112e-06
1.53678273358e-05
3.94157838104e-05
7.86419559907e-06
1.36764325635e-05
3.42086594304e-05
7.6824669043e-06
1.31751534368e-05
3.18128069285e-05
8.23561989068e-06
1.3849502168e-05
3.22748423364e-05
9.53278342923e-06
1.55334888592e-05
3.4452473187e-05
1.13020225523e-05
1.75332607448e-05
3.61301449778e-05
1.31976625635e-05
1.93730251246e-05
3.68846443416e-05
1.51403547473e-05
2.11706713624e-05
3.76799097397e-05
1.73584631583e-05
2.33804564371e-05
3.95198636486e-05
2.00887674316e-05
2.6255712581e-05
4.24865528431e-05
2.32318868256e-05
2.95055844918e-05
4.56572942666e-05
2.6521592481e-05
3.27608694995e-05
4.84746296791e-05
2.99171008937e-05
3.60669001898e-05
5.12974266555e-05
3.37194896542e-05
3.98665070468e-05
5.49224268916e-05
3.82840147974e-05
4.45498258248e-05
5.97595552683e-05
4.35828200281e-05
4.99706090564e-05
6.53156952097e-05
4.93177106577e-05
5.57393016675e-05
7.09993894704e-05
5.53991942238e-05
6.18084689808e-05
7.69059250556e-05
6.2188246531e-05
6.86485334828e-05
8.37748122302e-05
7.02959964619e-05
7.69367268841e-05
9.24168844453e-05
8.01382728712e-05
8.70579049251e-05
0.000103117362975
9.15825049411e-05
9.87731932485e-05
0.00011537714775
0.000104208606718
0.000111594576303
0.000128563491525
0.000117928937422
0.00012546686138
0.000142714318596
0.00013334546298
0.000141084891085
0.000158742324578
0.000151632119561
0.000159706268573
0.000178087209499
0.000174133007866
0.000182710570721
0.000202195820276
0.000201961589606
0.000211198510008
0.000232129874675
0.000235785250586
0.000245797559893
0.000268422905473
0.000275847982108
0.000286708907048
0.00031118185887
0.000322204058936
0.000333959634946
0.000360379064919
0.000375085307275
0.000387779025058
0.000416246265287
0.000435310495926
0.000449008166092
0.000479682220073
0.000504686103106
0.000519497034879
0.00055263970125
0.000586362398282
0.000602455117297
0.000638462724047
0.00068512650538
0.000702737874745
0.000742157124732
0.000807681061284
0.000827124381321
0.000870665384341
0.000962926943903
0.000984601714156
0.00103315481091
0.0011621031462
0.0011864995447
0.00124114081707
0.00141890602168
0.00144660693074
0.00150860071293
0.00174973541588
0.00178142007643
0.00185222962167
0.00217399253546
0.00221042506783
0.00229169505712
0.00271658658982
0.00275862917001
0.00285223134141
0.00343332841484
0.0034827004376
0.00359247113289
0.00440943822809
0.00446843266368
0.00459952483178
0.00576699349273
0.00583827893478
0.00599675556171
0.00771745676692
0.00780481101499
0.00799937406657
0.0106414848968
0.010751209491
0.0109962721921
0.01520829143
0.0153522254211
0.0156743724514
0.0234083578006
0.0236194142384
0.0240879030463
0.0354458727956
0.0356737152834
0.0361765139349
0.0653464886636
0.0187692745055
0.00591115731265
0.00216045697801
0.000866797272989
0.000401319080097
0.000235633325116
0.000176080456371
0.000145656736863
0.000115328118185
9.30054173278e-05
8.22254421525e-05
8.01571271629e-05
8.09567294201e-05
7.83332313538e-05
7.39018939397e-05
7.10027635385e-05
7.11865975382e-05
7.34625488172e-05
7.54006465041e-05
7.64182987174e-05
7.76881528203e-05
8.05680237084e-05
8.52888456419e-05
9.06176672837e-05
9.57030441717e-05
0.000100989471993
0.00010766312246
0.000116679526508
0.000128093596804
0.000140969059364
0.000154486409496
0.000168874252265
0.000185386485575
0.000205712425713
0.000231365086911
0.000263323751626
0.000301975448295
0.000347295910808
0.000399194506171
0.000457927170604
0.000524494491533
0.000601009360393
0.00069101206645
0.000799715168468
0.000934273756142
0.00110408065283
0.00132087608598
0.00159886460215
0.00195499468863
0.00240918541767
0.00298703041341
0.00375012709576
0.00478755977041
0.0062241425212
0.00827923479011
0.0113501718194
0.0161415029257
0.0247606572671
0.0368951919945
0.231999736303
0.231999914205
0.231999958011
0.231999979386
0.231999992385
0.231999998128
0.23200000005
0.232000000415
0.232000000536
0.232000000438
0.232000000457
0.232000000368
0.232000000375
0.232000000341
0.232000000322
0.232000000281
0.23200000023
0.232000000201
0.232000000186
0.232000000128
0.231957975152
0.231990957945
0.231998044947
0.231999423806
0.23199983266
0.231999960656
0.231999993349
0.231999999693
0.232000000719
0.232000000712
0.232000000705
0.232000000605
0.232000000601
0.232000000561
0.232000000541
0.232000000501
0.232000000381
0.232000000337
0.232000000317
0.232000000239
0.229232164993
0.231602509365
0.231951651164
0.23199098543
0.231998153128
0.231999649697
0.231999945442
0.231999993742
0.232000000203
0.232000000785
0.232000000807
0.232000000716
0.232000000715
0.232000000675
0.232000000668
0.232000000618
0.232000000495
0.232000000447
0.232000000419
0.232000000334
0.132927499671
0.22406894112
0.23050918301
0.23186300949
0.23198189325
0.231997467015
0.231999652212
0.231999959135
0.231999996793
0.232000000559
0.232000000844
0.232000000781
0.232000000783
0.232000000752
0.232000000752
0.232000000726
0.232000000558
0.232000000508
0.23200000048
0.232000000462
0.0305864110372
0.204590522666
0.226594988336
0.231041188861
0.23191163818
0.231988378553
0.231998463315
0.23199981486
0.23199998187
0.231999999282
0.232000000762
0.232000000796
0.232000000807
0.23200000078
0.232000000792
0.23200000075
0.232000000607
0.232000000558
0.232000000533
0.232000000571
0.0129766444804
0.159050608853
0.22033886919
0.229739176865
0.23164909333
0.231966535939
0.231995355692
0.231999396793
0.231999933932
0.231999994714
0.232000000377
0.232000000754
0.232000000789
0.232000000772
0.23200000079
0.232000000776
0.232000000603
0.232000000559
0.232000000544
0.232000000621
0.00651853592418
0.0775014631935
0.21323374201
0.228128451636
0.231259166059
0.231925285302
0.23198900351
0.231998453065
0.231999812177
0.231999981806
0.231999999206
0.232000000624
0.232000000732
0.232000000726
0.232000000755
0.23200000072
0.232000000588
0.232000000551
0.23200000055
0.232000000666
0.00270530565176
0.0223679079823
0.204230686057
0.226289903811
0.230758948498
0.231861600172
0.231978169116
0.231996676221
0.231999553863
0.231999951033
0.231999996174
0.232000000318
0.23200000064
0.232000000657
0.232000000686
0.232000000684
0.232000000529
0.232000000502
0.232000000514
0.232000000646
0.00148598506765
0.0151125304416
0.188418794359
0.223964350464
0.230201154097
0.231714046209
0.231963210665
0.231993817986
0.23199907924
0.231999886991
0.231999989203
0.231999999632
0.232000000506
0.232000000564
0.232000000607
0.232000000575
0.23200000047
0.232000000453
0.232000000481
0.232000000634
0.0011110771678
0.0132972619048
0.162200717418
0.220900616751
0.229491572414
0.231520532877
0.23193919874
0.231989248937
0.231998262818
0.231999765016
0.231999974521
0.231999998138
0.232000000296
0.232000000462
0.232000000503
0.232000000506
0.232000000379
0.232000000372
0.232000000417
0.232000000557
0.000928462186658
0.0110757005048
0.12222623055
0.217105261812
0.228605295605
0.231268722769
0.231904021173
0.231982229044
0.231996927105
0.231999547126
0.231999945771
0.231999995014
0.231999999937
0.232000000343
0.232000000411
0.232000000376
0.232000000299
0.2320000003
0.23200000036
0.232000000508
0.000731885145441
0.00772903451439
0.0716059450875
0.211870433353
0.227458658536
0.230937280592
0.231853698028
0.231971804047
0.231994833071
0.231999177938
0.231999892585
0.231999988802
0.231999999268
0.232000000205
0.232000000298
0.232000000301
0.232000000201
0.232000000211
0.23200000028
0.232000000399
0.000498134386409
0.0042112684647
0.0288301565646
0.202410733124
0.225895287034
0.230554473221
0.231743646877
0.231958544322
0.23199179846
0.231998587974
0.231999799549
0.23199997699
0.23199999799
0.232000000015
0.232000000212
0.232000000175
0.232000000121
0.232000000133
0.23200000021
0.23200000033
0.000362403191069
0.00280979492844
0.0210020270601
0.187176041228
0.22385902755
0.230064187938
0.231601833369
0.231938153679
0.231987288645
0.231997666024
0.23199964263
0.231999955498
0.231999995556
0.231999999732
0.2320000001
0.232000000111
0.232000000035
0.232000000048
0.23200000013
0.232000000203
0.000305672125726
0.00231116539222
0.0185470960477
0.163086621354
0.221090684535
0.229420284985
0.231415072328
0.231908738723
0.231980632108
0.231996246174
0.231999384979
0.231999917589
0.231999991049
0.231999999234
0.232000000013
0.232000000006
0.231999999967
0.231999999979
0.232000000056
0.232000000125
0.000285795188735
0.00202833859034
0.0158332080374
0.127453710491
0.217331940717
0.228554026955
0.23116154684
0.231866463772
0.231970888766
0.231994089562
0.231998970566
0.231999852556
0.231999982776
0.231999998358
0.231999999865
0.231999999956
0.2319999999
0.231999999911
0.231999999986
0.231999999998
0.000269225300012
0.00169383032343
0.0119035899769
0.0824493325677
0.211522882823
0.227310167898
0.230844128578
0.231772445396
0.231958274012
0.231990975747
0.231998324777
0.231999743792
0.231999968109
0.231999996706
0.23199999969
0.231999999863
0.23199999985
0.231999999857
0.231999999917
0.231999999921
0.000234986528236
0.00123991146833
0.007158605697
0.0376280856327
0.200650584877
0.225450360255
0.230391268048
0.231643107702
0.231938358585
0.231986309415
0.231997324122
0.231999565456
0.23199994246
0.23199999373
0.231999999349
0.231999999817
0.2319999998
0.231999999809
0.231999999864
0.231999999798
0.000202355282602
0.000943086015408
0.00490842947367
0.0268693112327
0.182932268835
0.222865344822
0.229772532227
0.231466192928
0.231909170556
0.231979377757
0.23199578825
0.231999277223
0.231999898658
0.231999988351
0.231999998833
0.231999999704
0.231999999767
0.231999999775
0.231999999803
0.231999999725
0.000182365196287
0.000794333930419
0.00397813105018
0.0229001881281
0.155942801715
0.219140547025
0.228907196764
0.231218676051
0.231866834913
0.231969206079
0.231993460286
0.231998818613
0.23199982499
0.231999978906
0.231999997791
0.231999999616
0.231999999724
0.231999999746
0.231999999767
0.231999999619
0.000174572949532
0.000723424945101
0.00344292630634
0.0192149538922
0.119426835231
0.21359652557
0.227668229923
0.230904509955
0.231772544232
0.231956037367
0.231990110782
0.231998109435
0.231999703875
0.231999962367
0.231999996031
0.231999999384
0.231999999686
0.231999999728
0.231999999716
0.231999999557
0.000171739815661
0.000664768240896
0.00289084044116
0.0144707856464
0.0767265147077
0.205203374469
0.225868841029
0.230446247853
0.231640212892
0.231935075864
0.231985085966
0.231997015795
0.231999507303
0.231999934171
0.231999992721
0.231999999071
0.231999999637
0.231999999712
0.231999999696
0.231999999466
0.000166107966786
0.000584971562112
0.00225334100829
0.00951985757847
0.040828490625
0.190599146574
0.223210382268
0.229790289084
0.231453598079
0.231903968015
0.231977600794
0.231995342477
0.231999192625
0.2319998865
0.231999987013
0.231999998462
0.231999999581
0.231999999709
0.231999999653
0.231999999411
0.000158554633395
0.00051111932826
0.00179875512251
0.00698700334592
0.0304810142733
0.168806450798
0.21950660966
0.228890761625
0.231194406787
0.231859165993
0.231966697339
0.231992827598
0.231998697135
0.231999807631
0.231999976953
0.23199999746
0.231999999493
0.231999999706
0.231999999643
0.231999999339
0.000153292674649
0.000462906926334
0.0015471970751
0.00581391677364
0.025849793753
0.140082258819
0.214172827797
0.22763631104
0.23087178043
0.231760833154
0.231952804983
0.231989260708
0.231997941906
0.231999679759
0.231999959904
0.231999995629
0.231999999351
0.231999999704
0.231999999611
0.231999999293
0.000152819570936
0.000439793058004
0.00141533863214
0.00512751643641
0.0217447730862
0.107047854
0.206210856871
0.225846762071
0.230409444122
0.231625460312
0.231931033516
0.23198399978
0.231996796682
0.231999476084
0.231999931152
0.231999992479
0.231999999092
0.231999999715
0.2319999996
0.231999999233
0.000156082077581
0.000427894086879
0.00130987485036
0.00444992828803
0.0171033954364
0.0735184677539
0.194166100422
0.223260971402
0.229750819721
0.231436525093
0.231899119606
0.231976290083
0.231995076483
0.231999156132
0.231999883819
0.231999986999
0.231999998662
0.231999999691
0.231999999569
0.231999999176
0.0001593593543
0.000410901133548
0.00117130360589
0.00362661086608
0.0122067404229
0.0439796257581
0.1768236235
0.21967252221
0.228853829084
0.231178702023
0.231854110829
0.231965302594
0.231992548493
0.231998664042
0.231999807129
0.23199997773
0.231999997802
0.231999999668
0.231999999537
0.231999999107
0.000161439571588
0.000390670973587
0.00104157071427
0.00300715178822
0.0094798586492
0.0340950065306
0.154686698614
0.214898066244
0.227681351177
0.230874499675
0.23176033916
0.231951830028
0.231989073423
0.231997935001
0.231999686372
0.231999962176
0.231999996337
0.231999999523
0.231999999479
0.231999999039
0.000164051856907
0.000376238827035
0.000955522074623
0.00265274558873
0.0081706016564
0.0293568763206
0.129786254016
0.208280718902
0.226113203396
0.230464123604
0.231638168162
0.231931605931
0.231984140589
0.231996866241
0.231999499691
0.231999936841
0.231999993646
0.231999999329
0.231999999431
0.231999998983
0.000169536761018
0.000372880417955
0.000914498845886
0.00246924778401
0.00741672233775
0.0256469288758
0.104782756425
0.19892768621
0.223966035901
0.229906312804
0.231475628565
0.231903051178
0.231977162781
0.231995313192
0.231999215806
0.231999896104
0.231999989227
0.231999998935
0.231999999424
0.231999998917
0.000178985393042
0.00037971885356
0.000900987072806
0.00235243582877
0.00677670845588
0.0219812940628
0.0817227258181
0.186091543974
0.221005676632
0.229149766547
0.231258001182
0.231863733489
0.231967468688
0.231993092705
0.231998791492
0.23199983221
0.231999981765
0.23199999841
0.231999999372
0.231999998927
0.000191642419528
0.00039162030006
0.000893596723427
0.00223127966815
0.00607666671749
0.0182528019965
0.0614926387322
0.169759338035
0.216944327375
0.228135829709
0.230999339615
0.231785040096
0.231955804988
0.231990107201
0.231998179307
0.231999734225
0.23199996988
0.231999997347
0.231999999378
0.231999998958
0.000205383822639
0.000402301343534
0.000876206114866
0.0020735918706
0.00529277538791
0.014636433967
0.0446033216665
0.151043157319
0.211565963588
0.226818934587
0.230662141846
0.231686420183
0.231938945571
0.231986011139
0.231997310002
0.23199958771
0.231999950944
0.231999995704
0.231999999349
0.231999998874
0.000219050204702
0.000410878908849
0.000854865651777
0.00192856358406
0.00468968165665
0.0124067895435
0.0369604827758
0.132097870347
0.204674261716
0.225148346399
0.230233358656
0.23156338828
0.231916287166
0.231980463595
0.231996094972
0.231999372771
0.23199992181
0.231999993058
0.231999999177
0.231999999684
0.000233487454885
0.00042122337015
0.000843470942674
0.00183631727701
0.00433192871937
0.0112109847135
0.0329656670863
0.11459845043
0.195888715337
0.223000856651
0.229687149213
0.231408963528
0.231886912202
0.231973094628
0.231994423671
0.231999063205
0.231999877612
0.231999988606
0.231999999688
0.23200000122
0.000250811416521
0.000438026772606
0.000850971697275
0.00180392452012
0.00415959336185
0.0105401148055
0.0301393323754
0.0993095234758
0.185121094734
0.220210050502
0.228986428745
0.231213554522
0.231849278343
0.231963483797
0.231992164336
0.231998624817
0.231999811655
0.231999981749
0.231999999897
0.232000004192
0.000273242169788
0.000464347623881
0.000879220775833
0.00181971743954
0.00409733180719
0.0101010645241
0.0277893977992
0.086521783795
0.172630581811
0.216569743155
0.228083512961
0.230989809783
0.231779886023
0.231952521803
0.231989267878
0.231998021841
0.231999715564
0.231999971117
0.231999999886
0.232000008246
0.000302350629475
0.000501147863972
0.000925542277169
0.00186758509067
0.00409016862782
0.00975542485255
0.0257080114397
0.0758169345985
0.159303850788
0.211870990768
0.226920351279
0.23070248692
0.231695806542
0.231937391735
0.231985472141
0.231997202796
0.231999578036
0.231999954886
0.231999999995
0.232000012184
0.000338845177015
0.000547865120129
0.000985636298243
0.0019339435992
0.00410580649697
0.00944587811246
0.0238275857586
0.0667552524124
0.146197647805
0.205944789633
0.225428130077
0.230335885115
0.231593025099
0.231917648846
0.231980520673
0.23199610222
0.231999384581
0.231999930933
0.231999999371
0.232000018938
0.000382736154636
0.000603257671913
0.0010555844176
0.00201012963132
0.00412990524723
0.00915913099915
0.0221483245911
0.0591408680873
0.134086131762
0.198750708505
0.223526249776
0.229871222245
0.231466922716
0.231892747402
0.231974162869
0.23199464358
0.231999116422
0.231999895765
0.231999998369
0.23200002631
0.000433701601007
0.000666192939864
0.00113303225286
0.00209285983223
0.00416154302994
0.00890764813991
0.0207083025128
0.0529125672108
0.123374497334
0.190493031815
0.221118045866
0.229284224046
0.231311849405
0.231861864747
0.231966150786
0.231992741685
0.231998751094
0.231999845495
0.231999997106
0.232000038261
0.000491543972849
0.000736303019917
0.00121785691119
0.002184042248
0.00420998869136
0.00872034030282
0.0195688412712
0.0480901562985
0.114435652895
0.181454199918
0.218074268133
0.228541552497
0.231137009829
0.231809317896
0.231957218581
0.23199037541
0.231998265925
0.231999775117
0.231999992583
0.232000054487
0.000556630478749
0.000814409195101
0.00131226341078
0.00228961258762
0.00428999442448
0.00862882911655
0.0187735466642
0.0445990238461
0.10707917333
0.172281868038
0.214276188874
0.227599645002
0.230918438115
0.231747811522
0.231945442327
0.231987387945
0.23199763004
0.231999676905
0.231999991191
0.232000072038
0.000630252477619
0.000902724047592
0.00142051598846
0.00241810089234
0.00441798896203
0.00866012156599
0.0183414363713
0.0422972896594
0.101062781799
0.163636149771
0.209669820153
0.226402499799
0.230644669093
0.231675122856
0.231930637667
0.231983633036
0.231996806727
0.231999546935
0.231999976755
0.232000105402
0.000714936285442
0.00100500291394
0.00154877562905
0.00258001084272
0.0046113979074
0.00883911330806
0.0182785388794
0.0410477164853
0.0962803944826
0.155996080837
0.204324391258
0.224874637701
0.230298377608
0.231588147142
0.231912517101
0.231978968951
0.231995751421
0.231999366224
0.231999976119
0.232000119772
0.000814699297694
0.00112664578091
0.00170493737447
0.00278727965656
0.00488770464912
0.00918718830802
0.0185872732502
0.04074046993
0.0927269930027
0.149797524426
0.198318385253
0.222915337209
0.229853521522
0.231482461957
0.231890648017
0.231973248722
0.231994417681
0.231999141003
0.231999938501
0.232000174906
0.000935226552777
0.00127469013037
0.00189827963519
0.00305228390119
0.00526213103446
0.00971657687628
0.0192609475207
0.0412529204268
0.0902889568002
0.144749703269
0.192164242617
0.220448254489
0.229275276176
0.231352011949
0.2318644058
0.231966324579
0.231992749833
0.231998825402
0.231999936522
0.232000153119
0.00108412653235
0.00145803205479
0.00213971236698
0.00338845830476
0.00575000240758
0.0104378097882
0.0202863318905
0.0424700730061
0.0888275979394
0.140646084283
0.186344294396
0.217457618331
0.228515105791
0.231187286962
0.231832698615
0.23195800457
0.231990693213
0.231998455525
0.231999852232
0.232000213353
0.00127124314091
0.00168775105096
0.00244215921313
0.00381088266795
0.00636779571956
0.0113589743529
0.021647885693
0.0442914593648
0.0882200332534
0.13740458304
0.181323983821
0.213927619131
0.227507089859
0.230986015323
0.231782221982
0.231948799538
0.231988225295
0.23199793588
0.231999835558
0.232000082687
0.00150873474095
0.00197702364808
0.00282007463853
0.00433483273366
0.00712754309564
0.0124877782038
0.0233269413859
0.0466239924359
0.0883528480715
0.134974737285
0.177210425058
0.210000775828
0.22618939144
0.230715180729
0.23172148983
0.231937057819
0.231985231592
0.231997358585
0.231999671675
0.232000082997
0.00181121273042
0.00234128896195
0.00328976028302
0.00497665840214
0.00804229620067
0.0138293099191
0.0253037818654
0.0493841872794
0.0891171561552
0.133264068396
0.173793187961
0.205995262777
0.224534280765
0.230347696121
0.231646187075
0.231922443809
0.231981593219
0.231996550082
0.231999602086
0.231999736575
0.00219610164039
0.002798785382
0.00387012485795
0.00575387301818
0.00912890657816
0.015392999603
0.027568840225
0.0525166253421
0.09043350229
0.132188132363
0.170926910553
0.202182932329
0.222571011085
0.229850034851
0.231549704514
0.231904315209
0.231977177507
0.231995665503
0.231999326607
0.231999543411
0.00268382389185
0.00337046218956
0.00458208709064
0.00668820601201
0.0104074248383
0.0171930300272
0.0301215506402
0.0559865953714
0.0922472607735
0.131692012498
0.168584350241
0.198894424818
0.22025500196
0.229182814293
0.231422487064
0.231881756743
0.231971837362
0.231994469492
0.231999127605
0.231998900129
0.00330083147576
0.00408451183613
0.0054570966787
0.00781596359512
0.0119221118852
0.0192867915151
0.0330366970289
0.059849805786
0.0945816488003
0.131777958872
0.166774355031
0.196097236244
0.217710995163
0.228327004741
0.231253858054
0.231853566468
0.231965420333
0.23199313222
0.2319987334
0.231998351561
0.00411594732893
0.00502922495232
0.0066220666296
0.00934255049889
0.0140462887105
0.0224308571474
0.0380085527499
0.0645837117667
0.0975349142565
0.132448428912
0.165487879216
0.193692885999
0.215092445216
0.227289119482
0.231031805594
0.231818186478
0.231957779363
0.23199147935
0.231998309785
0.231997517725
0.00522295440861
0.00630862225082
0.00819332771817
0.0113879020271
0.0168543322474
0.0264648918951
0.0439770702319
0.0699836137851
0.101034851434
0.133648824268
0.164687297363
0.191632083674
0.212614045509
0.226019673734
0.230746887891
0.231766936432
0.23194901155
0.231989543424
0.231997853277
0.231996603825
0.00675037009786
0.00806069480456
0.0103238182694
0.0141265347411
0.0205548031345
0.0316775009744
0.0506874523711
0.0759394157601
0.105046820089
0.135363862372
0.164365680897
0.189925347866
0.21037436848
0.224503866877
0.230375397035
0.231703906043
0.231938316968
0.231987420396
0.231997170673
0.231996049258
0.00892818301741
0.0105455621054
0.0133306831105
0.0179805496595
0.0257665440558
0.0390683481559
0.0583973556143
0.0824839052196
0.10955462116
0.137574312761
0.164515042912
0.188590515842
0.208361131013
0.222782576958
0.2299037285
0.23162587948
0.231925538908
0.231984742336
0.231996778284
0.231995169543
0.0121739250003
0.0142324058364
0.0177718283368
0.023649425501
0.033399370888
0.0479060775537
0.0669009194902
0.0895333093712
0.114502204297
0.140239787169
0.165116894302
0.187639385527
0.206576704536
0.220988242286
0.229254566556
0.231524796029
0.231910198135
0.231982099075
0.231995952161
0.231995633346
0.0172328036424
0.0199536127741
0.0246196919037
0.0322413204159
0.0432417869304
0.0578737243312
0.0759670600469
0.0969170329862
0.119750859945
0.143248870017
0.166095431058
0.187038787104
0.205019152683
0.219195574236
0.228375263908
0.23138637065
0.231891215164
0.231978546953
0.231995744249
0.23199556695
0.0263090354998
0.0299048970141
0.0355373535547
0.0436766542568
0.0546598312128
0.0686167017782
0.0853903913208
0.104509534586
0.125216698435
0.146543043819
0.167414679877
0.186777299698
0.203709310841
0.217468941005
0.227244101654
0.231176584806
0.231865504359
0.231974857938
0.231995055472
0.231997440284
0.0385371406862
0.04218361006
0.0477133072538
0.0554684360344
0.065695593803
0.0784796134631
0.0936893603331
0.110952825168
0.129668608536
0.149051620512
0.168206331525
0.186221167248
0.202264461005
0.215655289297
0.225824405453
0.230822035484
0.231826366963
0.231969716277
0.231994617429
0.231999625432
0.232000009719
0.232000011322
0.232000007461
0.232000010837
0.232000006379
0.232000010157
0.232000005855
0.23200000863
0.232000005122
0.232000006685
0.232000004479
0.232000005052
0.232000003958
0.23200000363
0.232000003556
0.232000002392
0.232000003258
0.232000001284
0.232000003026
0.232000000311
0.23200000286
0.231999999453
0.232000002755
0.231999998738
0.232000002752
0.231999998131
0.232000002785
0.231999997647
0.232000002893
0.231999997248
0.232000003024
0.231999996956
0.232000003309
0.231999996728
0.232000003592
0.231999996568
0.232000003975
0.231999996425
0.232000004294
0.231999996321
0.232000004852
0.231999996208
0.232000005359
0.231999996095
0.232000006086
0.231999995928
0.232000006632
0.23199999572
0.232000007525
0.231999995453
0.232000008304
0.231999995128
0.232000009395
0.231999994749
0.232000010401
0.231999994349
0.232000012263
0.231999994081
0.232000014882
0.23199999385
0.232000016692
0.23199999388
0.232000024061
0.23199999555
0.232000044281
0.232000000725
0.232000080549
0.232000010679
0.232000119968
0.232000024645
0.232000152375
0.23200004222
0.232000211545
0.232000066588
0.232000262276
0.232000097822
0.23200036737
0.23200014291
0.232000474909
0.232000202033
0.232000619963
0.232000275396
0.232000847121
0.23200037448
0.232000930357
0.232000451256
0.232001340154
0.232000570893
0.232001063675
0.232000540503
0.232001644127
0.232000577403
0.232000487145
0.232000196307
0.232001033913
0.231999917396
0.231998473613
0.231998860812
0.231998461637
0.231997935474
0.231994567204
0.231996054966
0.231993256635
0.231994286679
0.231989695024
0.231992152773
0.231986816846
0.231989995345
0.231987076635
0.231989302538
0.231983776219
0.231988250071
0.231991008586
0.231991071992
0.231989645452
0.231992851075
0.232002960461
0.231999531636
0.232012115941
0.232006695963
)
;

boundaryField
{
    inletfuel
    {
        type            fixedValue;
        value           uniform 0;
    }
    inletair
    {
        type            fixedValue;
        value           uniform 0.232;
    }
    outlet
    {
        type            zeroGradient;
    }
    axis
    {
        type            empty;
    }
    leftside
    {
        type            zeroGradient;
    }
    burnerwall
    {
        type            zeroGradient;
    }
    front
    {
        type            wedge;
    }
    back
    {
        type            wedge;
    }
}


// ************************************************************************* //
