/*--------------------------------*- C++ -*----------------------------------*\
| =========                 |                                                 |
| \\      /  F ield         | OpenFOAM: The Open Source CFD Toolbox           |
|  \\    /   O peration     | Version:  2.2.x                                 |
|   \\  /    A nd           | Web:      www.OpenFOAM.org                      |
|    \\/     M anipulation  |                                                 |
\*---------------------------------------------------------------------------*/
FoamFile
{
    version     2.0;
    format      ascii;
    class       volScalarField;
    location    "1000";
    object      p;
}
// * * * * * * * * * * * * * * * * * * * * * * * * * * * * * * * * * * * * * //

dimensions      [1 -1 -2 0 0 0 0];

internalField   nonuniform List<scalar> 
1629
(
101377.124639
101375.02472
101385.247796
101356.556164
101353.77577
101357.383871
101346.981757
101344.92076
101348.130493
101332.463145
101331.086818
101330.876691
101333.447457
101333.062581
101333.057445
101332.054511
101331.884909
101331.336351
101331.844071
101331.851638
101331.414607
101331.904151
101331.933
101331.566994
101331.964306
101331.979128
101331.690389
101332.021986
101332.015843
101331.790502
101332.029053
101332.009981
101331.832256
101332.001004
101331.983546
101331.841665
101331.932712
101331.928823
101331.813115
101331.85755
101331.87347
101331.779014
101331.798144
101331.833453
101331.758076
101331.724608
101331.774339
101331.715726
101331.64189
101331.700109
101331.656199
101331.54007
101331.601511
101331.569378
101331.442213
101331.503293
101331.480547
101331.375032
101331.433417
101331.418287
101331.302587
101331.356666
101331.346945
101331.22234
101331.271332
101331.265275
101331.129716
101331.173498
101331.169732
101331.040821
101331.079695
101331.07752
101330.970832
101331.00512
101331.004237
101330.89412
101330.924104
101330.924029
101330.807922
101330.834001
101330.834334
101330.710806
101330.733518
101330.733989
101330.617454
101330.637319
101330.637901
101330.537759
101330.555093
101330.555848
101330.452102
101330.467137
101330.467963
101330.357997
101330.370998
101330.371803
101330.257048
101330.268296
101330.269042
101330.149506
101330.159289
101330.159952
101330.042529
101330.051084
101330.051687
101329.940708
101329.948162
101329.94874
101329.835293
101329.841737
101329.842276
101329.724444
101329.729984
101329.730465
101329.607833
101329.612579
101329.613001
101329.485888
101329.489942
101329.490309
101329.359166
101329.362618
101329.362936
101329.228155
101329.231082
101329.231355
101329.092928
101329.095391
101329.095626
101328.95307
101328.955126
101328.955325
101328.808423
101328.810122
101328.810287
101328.65901
101328.660397
101328.660531
101328.504481
101328.505593
101328.5057
101328.344314
101328.345188
101328.34527
101328.178615
101328.179282
101328.179342
101328.007029
101328.007515
101328.007554
101327.828885
101327.829215
101327.829235
101327.643975
101327.644174
101327.644177
101327.452285
101327.452367
101327.452355
101327.253747
101327.253725
101327.253699
101327.045641
101327.045545
101327.045505
101326.831088
101326.830934
101326.83088
101326.611873
101326.611645
101326.611578
101326.383157
101326.382839
101326.382754
101326.146675
101326.146232
101326.146118
101325.902663
101325.901958
101325.901798
101325.653929
101325.65268
101325.652423
101325.389533
101325.38686
101325.386526
101325.195574
101325.193578
101325.193276
101328.418763
101333.521568
101331.535052
101331.56379
101331.626271
101331.694179
101331.754394
101331.770065
101331.766246
101331.73309
101331.702261
101331.690152
101331.658458
101331.609826
101331.532159
101331.451138
101331.396003
101331.330216
101331.252667
101331.159967
101331.069968
101330.998677
101330.919929
101330.831177
101330.731389
101330.635794
101330.554302
101330.466832
101330.370922
101330.268324
101330.159327
101330.051159
101329.948338
101329.841974
101329.730225
101329.612803
101329.490143
101329.362798
101329.231242
101329.095534
101328.955251
101328.810227
101328.660482
101328.505659
101328.345235
101328.17931
101328.007525
101327.829207
101327.644147
101327.452326
101327.253669
101327.045467
101326.830836
101326.611529
101326.382696
101326.146045
101325.90171
101325.652296
101325.38656
101325.193199
101332.467341
101332.320317
101332.30711
101332.24849
101332.199863
101332.150488
101332.105311
101332.063823
101332.026714
101331.993458
101331.963525
101331.936342
101331.910268
101331.885953
101331.857874
101331.833546
101331.790493
101331.769109
101331.675244
101331.721044
101332.583174
101332.391159
101332.340287
101332.224004
101332.153014
101332.086234
101332.034111
101331.989111
101331.951513
101331.918869
101331.890048
101331.864403
101331.83913
101331.817086
101331.788204
101331.768765
101331.7198
101331.709538
101331.599562
101331.619789
101332.853304
101332.544728
101332.452405
101332.234004
101332.135698
101332.047222
101331.991301
101331.945
101331.909201
101331.878662
101331.852024
101331.82874
101331.804798
101331.785645
101331.756582
101331.742314
101331.689186
101331.686908
101331.555626
101331.562495
101334.018752
101332.240927
101332.484737
101332.195336
101332.101733
101332.006283
101331.953284
101331.910138
101331.878019
101331.850314
101331.82606
101331.804896
101331.782448
101331.765324
101331.73719
101331.725686
101331.672476
101331.672838
101331.51832
101331.490154
101332.026994
101332.048225
101332.218666
101332.016568
101332.00568
101331.938727
101331.902642
101331.868515
101331.842903
101331.819201
101331.797785
101331.778858
101331.757989
101331.742807
101331.715878
101331.707077
101331.655275
101331.660904
101331.50235
101331.507312
101331.194988
101331.877671
101331.792666
101331.818747
101331.873782
101331.852362
101331.841992
101331.82084
101331.803831
101331.78536
101331.767499
101331.751272
101331.732346
101331.719441
101331.69418
101331.688728
101331.640108
101331.654183
101331.514615
101331.571889
101331.299483
101331.693384
101331.58691
101331.718935
101331.767365
101331.77703
101331.783088
101331.772949
101331.763582
101331.750312
101331.736146
101331.722813
101331.706075
101331.695664
101331.672534
101331.670791
101331.627133
101331.650407
101331.54163
101331.643092
101331.324486
101331.534603
101331.58636
101331.668482
101331.700184
101331.721539
101331.73209
101331.728535
101331.724159
101331.715064
101331.704166
101331.693606
101331.679116
101331.67125
101331.650586
101331.652572
101331.615024
101331.646399
101331.57009
101331.696995
101331.403321
101331.529341
101331.63504
101331.633723
101331.663528
101331.67979
101331.689224
101331.688241
101331.686343
101331.680135
101331.671822
101331.663718
101331.651393
101331.645994
101331.627976
101331.633434
101331.602367
101331.639649
101331.5909
101331.721156
101331.472313
101331.545192
101331.637148
101331.60162
101331.638042
101331.643529
101331.651937
101331.651027
101331.650077
101331.645644
101331.63923
101331.633173
101331.62283
101331.619697
101331.604342
101331.612784
101331.587945
101331.628634
101331.600734
101331.721899
101331.49756
101331.52775
101331.611789
101331.578258
101331.614821
101331.610188
101331.617892
101331.615706
101331.614914
101331.611425
101331.606328
101331.60189
101331.593278
101331.592112
101331.579287
101331.590074
101331.570801
101331.612613
101331.599363
101331.705969
101331.510055
101331.506672
101331.577986
101331.573723
101331.589561
101331.579684
101331.585311
101331.581458
101331.580309
101331.577179
101331.572925
101331.569698
101331.562532
101331.562968
101331.552423
101331.564847
101331.550256
101331.591317
101331.587567
101331.677662
101331.501773
101331.454014
101331.501988
101331.555794
101331.544481
101331.546271
101331.550316
101331.546878
101331.545417
101331.542476
101331.53873
101331.536357
101331.530342
101331.531987
101331.523395
101331.536751
101331.525893
101331.564799
101331.566629
101331.640519
101331.503334
101331.416652
101331.437232
101331.525128
101331.496188
101331.514637
101331.514065
101331.512265
101331.50994
101331.507024
101331.503443
101331.501599
101331.496441
101331.498898
101331.491896
101331.505541
101331.497505
101331.533318
101331.537982
101331.597238
101331.52441
101331.427357
101331.430648
101331.508572
101331.467742
101331.491055
101331.48064
101331.47887
101331.474087
101331.470675
101331.466788
101331.465143
101331.460551
101331.46345
101331.457674
101331.471057
101331.465045
101331.497229
101331.502926
101331.549608
101331.521173
101331.428286
101331.412374
101331.480262
101331.447077
101331.466999
101331.447621
101331.444849
101331.436967
101331.4328
101331.428315
101331.42664
101331.422378
101331.425405
101331.420524
101331.433214
101331.428566
101331.456905
101331.462534
101331.498761
101331.496648
101331.416873
101331.385173
101331.44114
101331.430136
101331.434201
101331.411469
101331.407279
101331.397209
101331.392471
101331.387454
101331.385686
101331.381623
101331.384546
101331.380287
101331.391974
101331.388179
101331.412697
101331.417646
101331.445385
101331.437827
101331.372584
101331.318764
101331.351738
101331.387112
101331.374514
101331.364669
101331.361753
101331.352953
101331.348601
101331.343612
101331.341879
101331.338004
101331.340682
101331.336842
101331.347334
101331.344022
101331.364906
101331.368888
101331.389862
101331.37334
101331.321202
101331.256333
101331.258519
101331.328121
101331.306842
101331.314535
101331.311074
101331.305212
101331.301294
101331.296669
101331.295006
101331.291326
101331.29367
101331.290106
101331.299311
101331.296231
101331.313775
101331.316708
101331.33237
101331.334686
101331.294624
101331.239652
101331.229385
101331.286575
101331.260768
101331.271781
101331.261834
101331.256768
101331.251639
101331.24695
101331.245063
101331.24149
101331.243413
101331.240025
101331.247932
101331.244933
101331.259491
101331.261407
101331.272969
101331.283488
101331.250948
101331.207035
101331.189172
101331.23219
101331.216046
101331.224292
101331.210113
101331.205399
101331.198824
101331.194029
101331.19181
101331.188336
101331.189816
101331.186556
101331.193223
101331.190229
101331.20218
101331.203181
101331.21165
101331.217731
101331.190601
101331.157411
101331.13436
101331.163432
101331.165749
101331.165758
101331.152496
101331.148499
101331.141683
101331.137212
101331.134891
101331.131656
101331.13277
101331.129658
101331.135197
101331.132198
101331.141922
101331.142155
101331.148276
101331.133765
101331.109778
101331.08256
101331.055064
101331.063561
101331.098557
101331.088388
101331.08573
101331.084019
101331.079363
101331.075994
101331.074065
101331.071302
101331.0722
101331.0693
101331.073864
101331.070893
101331.078751
101331.078401
101331.082711
101331.050602
101331.029997
101331.006692
101330.981645
101330.971273
101331.021667
101331.00925
101331.017348
101331.015691
101331.013593
101331.011041
101331.0096
101331.007336
101331.008116
101331.00548
101331.009231
101331.006344
101331.012666
101331.011921
101331.014858
101330.985026
101330.969438
101330.951436
101330.934283
101330.920879
101330.957291
101330.947212
101330.954161
101330.94843
101330.946608
101330.94345
101330.941983
101330.939942
101330.940586
101330.938218
101330.941302
101330.93856
101330.943638
101330.94266
101330.944573
101330.910458
101330.898685
101330.884455
101330.872401
101330.859529
101330.88384
101330.882504
101330.884881
101330.877472
101330.875765
101330.87218
101330.870759
101330.86894
101330.869537
101330.867485
101330.870057
101330.867527
101330.87162
101330.870538
101330.871703
101330.824362
101330.815146
101330.80368
101330.794464
101330.783538
101330.798389
101330.804411
101330.803096
101330.79852
101330.798382
101330.795934
101330.795261
101330.794035
101330.794838
101330.793224
101330.795459
101330.793214
101330.796546
101330.795468
101330.796096
101330.726161
101330.718171
101330.707862
101330.698645
101330.687444
101330.689715
101330.710642
101330.70886
101330.711652
101330.714476
101330.714785
101330.71551
101330.715264
101330.7165
101330.715435
101330.717489
101330.715588
101330.71835
101330.717356
101330.717613
101330.63188
101330.625224
101330.616409
101330.607528
101330.597622
101330.589496
101330.620565
101330.619398
101330.626495
101330.62957
101330.631531
101330.632897
101330.633304
101330.63482
101330.634238
101330.63617
101330.634629
101330.636963
101330.636107
101330.63612
101330.551698
101330.547056
101330.54094
101330.534441
101330.5287
101330.521087
101330.542408
101330.542619
101330.54649
101330.546553
101330.547773
101330.548373
101330.548657
101330.550039
101330.549733
101330.551514
101330.550305
101330.552316
101330.551628
101330.551492
101330.465166
101330.461833
101330.457426
101330.452425
101330.448521
101330.442973
101330.456578
101330.460382
101330.461157
101330.459908
101330.460495
101330.460493
101330.460625
101330.461833
101330.46176
101330.463425
101330.462541
101330.464319
101330.463821
101330.463609
101330.36977
101330.367194
101330.363792
101330.359781
101330.356636
101330.352598
101330.361603
101330.367135
101330.367462
101330.366708
101330.367604
101330.367971
101330.368422
101330.36976
101330.37007
101330.37175
101330.371231
101330.372873
101330.372584
101330.372357
101330.26746
101330.26537
101330.26261
101330.259306
101330.256564
101330.253397
101330.25972
101330.264843
101330.266593
101330.266944
101330.269091
101330.270648
101330.271905
101330.273703
101330.274564
101330.276401
101330.276294
101330.277888
101330.277822
101330.277626
101330.158599
101330.156706
101330.154148
101330.150981
101330.147933
101330.144408
101330.146314
101330.155373
101330.159622
101330.161852
101330.165966
101330.169095
101330.171444
101330.17386
101330.175332
101330.177395
101330.177703
101330.179302
101330.179453
101330.179315
101330.05058
101330.048973
101330.046756
101330.04393
101330.040919
101330.037556
101330.03539
101330.048448
101330.054082
101330.056888
101330.061558
101330.065264
101330.068132
101330.070815
101330.07266
101330.074845
101330.075476
101330.077071
101330.077403
101330.07733
101329.947967
101329.946872
101329.945365
101329.943435
101329.941317
101329.939336
101329.93719
101329.947181
101329.952261
101329.953859
101329.957105
101329.960048
101329.962531
101329.964896
101329.966719
101329.96881
101329.969605
101329.971145
101329.971595
101329.971575
101329.84177
101329.84103
101329.839998
101329.838655
101329.837117
101329.835832
101329.834238
101329.841607
101329.846346
101329.847796
101329.849526
101329.851712
101329.853677
101329.855575
101329.857212
101329.85911
101329.859964
101329.861414
101329.86192
101329.861966
101329.730096
101329.729544
101329.728765
101329.727734
101329.726515
101329.725494
101329.724207
101329.730065
101329.734168
101329.736558
101329.737044
101329.738957
101329.740612
101329.742215
101329.743715
101329.745456
101329.746351
101329.747728
101329.748257
101329.748403
101329.612714
101329.612274
101329.611644
101329.610797
101329.609775
101329.608877
101329.607749
101329.612616
101329.615554
101329.619558
101329.619218
101329.621307
101329.622889
101329.624454
101329.625928
101329.627609
101329.628577
101329.629932
101329.630494
101329.63076
101329.490077
101329.489714
101329.489188
101329.488471
101329.487595
101329.486789
101329.485792
101329.489819
101329.491911
101329.496999
101329.496476
101329.498814
101329.500491
101329.502188
101329.503714
101329.50542
101329.506495
101329.507877
101329.508495
101329.508888
101329.362748
101329.362447
101329.362005
101329.361395
101329.360642
101329.359919
101329.359046
101329.362205
101329.364106
101329.369185
101329.369429
101329.3717
101329.373562
101329.375429
101329.37703
101329.378795
101329.379987
101329.381423
101329.382112
101329.382625
101329.231207
101329.230965
101329.230603
101329.230097
101329.229465
101329.228835
101329.228101
101329.230405
101329.232598
101329.237111
101329.238659
101329.240291
101329.242312
101329.24424
101329.245866
101329.247665
101329.248949
101329.250438
101329.251196
101329.251809
101329.095513
101329.095323
101329.095035
101329.094626
101329.094106
101329.093567
101329.092964
101329.0945
101329.097126
101329.100979
101329.103714
101329.104461
101329.106622
101329.108495
101329.110115
101329.111906
101329.113252
101329.114778
101329.115593
101329.116279
101328.955237
101328.955085
101328.95485
101328.954508
101328.954062
101328.953573
101328.953034
101328.953904
101328.956813
101328.959786
101328.963543
101328.963753
101328.966082
101328.967906
101328.969562
101328.971332
101328.972728
101328.974277
101328.975139
101328.975869
101328.810216
101328.810089
101328.809889
101328.809591
101328.809191
101328.808725
101328.808194
101328.808522
101328.811503
101328.813848
101328.818054
101328.818278
101328.820584
101328.822382
101328.824067
101328.825794
101328.827221
101328.828774
101328.829667
101328.830414
101328.660473
101328.660364
101328.660193
101328.659933
101328.659573
101328.659135
101328.658596
101328.658532
101328.661425
101328.663545
101328.667997
101328.668417
101328.670259
101328.671965
101328.673569
101328.675187
101328.676595
101328.678113
101328.679015
101328.679749
101328.505647
101328.505549
101328.505395
101328.505159
101328.504825
101328.504399
101328.503839
101328.50347
101328.506155
101328.508283
101328.512567
101328.513397
101328.514595
101328.516291
101328.517777
101328.519281
101328.520644
101328.522107
101328.522999
101328.523697
101328.345217
101328.345118
101328.344967
101328.344734
101328.3444
101328.343951
101328.343349
101328.342701
101328.34511
101328.347353
101328.350651
101328.352495
101328.353094
101328.354944
101328.35635
101328.357799
101328.359125
101328.360539
101328.361418
101328.362072
101328.179286
101328.179185
101328.179034
101328.178802
101328.178469
101328.177995
101328.177369
101328.176513
101328.178675
101328.181058
101328.183576
101328.18658
101328.186282
101328.188109
101328.189321
101328.190665
101328.191901
101328.193241
101328.194089
101328.194683
101328.007495
101328.00739
101328.007235
101328.007002
101328.006663
101328.006172
101328.005531
101328.004515
101328.006452
101328.008871
101328.010933
101328.014997
101328.013759
101328.015387
101328.016395
101328.017619
101328.018742
101328.020001
101328.020809
101328.021341
101327.829169
101327.829052
101327.828883
101327.828633
101327.828265
101327.827747
101327.827065
101327.82588
101327.827559
101327.829867
101327.831751
101327.835927
101327.834678
101327.835969
101327.837027
101327.838223
101327.839309
101327.840533
101327.841329
101327.841809
101327.644099
101327.643966
101327.643775
101327.643494
101327.643086
101327.642525
101327.641785
101327.640428
101327.641832
101327.643953
101327.645879
101327.649473
101327.649157
101327.649779
101327.651111
101327.652298
101327.653416
101327.654636
101327.655446
101327.65589
101327.452273
101327.45213
101327.451926
101327.451628
101327.451205
101327.450627
101327.449869
101327.448408
101327.449606
101327.45159
101327.453703
101327.456622
101327.458255
101327.457468
101327.458969
101327.459967
101327.461063
101327.46222
101327.463021
101327.46341
101327.253605
101327.253449
101327.253227
101327.252908
101327.25246
101327.251853
101327.251058
101327.249489
101327.250484
101327.252342
101327.254612
101327.256969
101327.260627
101327.258382
101327.26002
101327.26085
101327.261961
101327.263054
101327.26386
101327.264202
101327.045385
101327.045185
101327.044896
101327.044482
101327.043899
101327.04304
101327.041676
101327.04114
101327.042508
101327.044613
101327.047196
101327.049492
101327.053852
101327.051689
101327.053366
101327.054377
101327.055654
101327.056792
101327.057677
101327.057994
101326.830735
101326.830495
101326.830144
101326.829638
101326.828925
101326.827821
101326.825757
101326.826214
101326.827871
101326.830144
101326.832869
101326.835313
101326.839468
101326.839046
101326.839812
101326.841099
101326.842376
101326.843523
101326.844451
101326.844718
101326.611412
101326.611143
101326.610753
101326.610188
101326.609373
101326.608087
101326.60611
101326.606488
101326.607898
101326.609963
101326.6125
101326.614987
101326.618369
101326.620367
101326.619493
101326.621097
101326.622136
101326.623235
101326.624123
101326.624307
101326.382556
101326.382231
101326.381757
101326.38107
101326.380007
101326.378183
101326.377261
101326.378001
101326.379585
101326.381748
101326.384301
101326.386949
101326.389736
101326.393274
101326.391534
101326.393499
101326.394367
101326.39551
101326.396358
101326.396503
101326.145866
101326.145448
101326.144839
101326.143907
101326.142363
101326.140752
101326.14089
101326.142047
101326.143853
101326.14612
101326.148675
101326.151362
101326.153813
101326.157572
101326.156659
101326.158317
101326.159117
101326.160251
101326.16101
101326.161135
101325.901493
101325.900963
101325.90015
101325.898837
101325.897483
101325.89714
101325.897902
101325.899362
101325.901332
101325.903655
101325.906171
101325.908769
101325.911056
101325.914122
101325.914883
101325.91545
101325.916348
101325.917286
101325.91792
101325.917984
101325.651942
101325.651217
101325.650369
101325.649541
101325.649279
101325.649785
101325.650833
101325.65228
101325.654026
101325.655969
101325.657999
101325.660031
101325.661836
101325.663682
101325.665199
101325.664736
101325.665707
101325.666264
101325.666738
101325.666707
101325.386536
101325.386419
101325.386563
101325.387258
101325.388414
101325.389993
101325.391933
101325.394161
101325.396578
101325.399058
101325.401433
101325.403522
101325.405133
101325.405927
101325.407037
101325.405975
101325.406655
101325.406718
101325.406983
101325.406822
101325.192792
101325.192129
101325.191206
101325.189909
101325.188122
101325.185725
101325.182598
101325.178638
101325.173783
101325.168033
101325.161476
101325.154343
101325.14713
101325.140376
101325.136691
101325.135949
101325.13738
101325.137325
101325.136993
101325.136565
101330.728981
101330.896553
101330.925816
101330.986236
101331.237106
101331.270234
101331.53466
101331.569215
101331.728339
101331.769833
101331.802155
101331.836315
101331.81378
101331.839101
101331.791701
101331.809451
101331.750131
101331.761974
101331.698705
101331.70634
101331.642763
101331.647571
101331.584795
101331.587759
101331.525861
101331.527644
101331.466292
101331.467328
101331.406052
101331.406617
101331.344934
101331.345206
101331.282653
101331.282757
101331.218923
101331.218938
101331.153742
101331.15369
101331.08699
101331.086897
101331.018271
101331.018162
101330.947306
101330.947189
101330.873888
101330.873768
101330.797832
101330.797712
101330.718975
101330.718857
101330.637167
101330.637053
101330.552271
101330.552163
101330.464159
101330.464058
101330.37271
101330.372617
101330.277811
101330.277727
101330.179354
101330.17928
101330.077236
101330.077172
101329.971356
101329.971302
101329.861554
101329.861516
101329.747796
101329.747772
101329.630064
101329.630052
101329.50816
101329.508162
101329.381894
101329.38191
101329.251094
101329.251121
101329.11559
101329.115624
101328.975208
101328.975249
101328.829778
101328.829823
101328.679133
101328.67918
101328.523097
101328.523144
101328.361485
101328.36153
101328.194105
101328.194149
101328.020775
101328.020816
101327.841257
101327.841295
101327.655362
101327.655397
101327.462902
101327.462933
101327.263725
101327.263752
101327.057554
101327.057577
101326.84432
101326.844338
101326.623944
101326.623956
101326.396176
101326.396183
101326.160838
101326.160838
101325.917696
101325.917692
101325.666434
101325.666425
101325.406572
101325.406563
101325.136502
101325.136507
)
;

boundaryField
{
    inletfuel
    {
        type            zeroGradient;
    }
    inletair
    {
        type            zeroGradient;
    }
    outlet
    {
        type            fixedValue;
        value           uniform 101325;
    }
    axis
    {
        type            empty;
    }
    leftside
    {
        type            zeroGradient;
    }
    burnerwall
    {
        type            zeroGradient;
    }
    front
    {
        type            wedge;
    }
    back
    {
        type            wedge;
    }
}


// ************************************************************************* //
