/*--------------------------------*- C++ -*----------------------------------*\
| =========                 |                                                 |
| \\      /  F ield         | OpenFOAM: The Open Source CFD Toolbox           |
|  \\    /   O peration     | Version:  2.2.x                                 |
|   \\  /    A nd           | Web:      www.OpenFOAM.org                      |
|    \\/     M anipulation  |                                                 |
\*---------------------------------------------------------------------------*/
FoamFile
{
    version     2.0;
    format      ascii;
    class       volScalarField;
    location    "1000";
    object      T;
}
// * * * * * * * * * * * * * * * * * * * * * * * * * * * * * * * * * * * * * //

dimensions      [0 0 0 1 0 0 0];

internalField   nonuniform List<scalar> 
1629
(
293.993243276
293.994636223
294.007101766
293.983977033
293.989764826
294.009896114
293.983038911
294.019139637
294.23819275
294.264619517
296.332796928
321.332426159
295.057180109
300.57422877
344.880780026
296.578791085
306.512063015
364.715528846
299.125941039
314.106707397
381.186325906
303.079300008
323.296206508
394.99111191
308.913566538
334.000170443
407.0823747
317.150921723
346.133097598
418.415365319
328.261155966
359.678554629
429.829860075
342.545659355
374.764738831
442.021153667
360.070213454
391.649341314
455.528448881
380.698009749
410.633412729
470.804990563
404.187452177
431.95734081
488.223354716
430.28084704
455.737510888
508.033172169
458.74940958
481.968195474
530.355400499
489.393896886
510.548685856
555.181801604
522.040697035
541.332113135
582.42636961
556.536910091
574.159391022
611.962805996
592.731957544
608.858098159
643.621078584
630.467272265
645.243878728
677.202990183
669.574177576
683.124808092
712.497560473
709.888306035
722.319619825
749.307625337
751.262343189
762.670728941
787.466207481
793.55765398
804.031393323
826.816042209
836.641010833
846.26079314
867.203786115
880.384721358
889.223493075
908.479358737
924.678994007
932.803386106
950.514183286
969.436418078
976.908886422
993.208521824
1014.57362415
1021.45259031
1036.46834786
1060.02455066
1066.36729593
1080.22291251
1105.74980777
1111.6076901
1124.41284841
1151.71042421
1157.12795633
1168.97790127
1197.87434806
1202.89064496
1213.86914557
1244.21967439
1248.87027085
1259.05343883
1290.72086128
1295.03825352
1304.49558693
1337.34720538
1341.36110391
1350.15611519
1384.06747393
1387.80499846
1395.99580001
1430.85123858
1434.33694331
1441.97644062
1477.66955007
1480.92531145
1488.06102471
1524.49585988
1527.54074403
1534.21448824
1571.30685064
1574.1570501
1580.4046682
1618.08315267
1620.75205821
1626.60337976
1664.81085167
1667.30935306
1672.78863999
1711.48278493
1713.81979196
1718.94671047
1758.09698095
1760.27996324
1765.07067689
1804.65334039
1806.688728
1811.15677396
1851.15045128
1853.04392908
1857.20095246
1897.5807234
1899.33731782
1903.19341659
1943.92208267
1945.54589334
1949.10920595
1990.13154165
1991.62531524
1994.90124773
2036.14177187
2037.5065844
2040.49723495
2081.84731675
2083.08206844
2085.78513462
2127.07969574
2128.18020838
2130.58691951
2171.41932601
2172.37208532
2174.4530312
2214.20462089
2214.98872664
2216.69805661
2254.41716629
2255.00534015
2256.28244312
2290.15631289
2290.50894951
2291.26381561
2317.79029683
2317.84407405
2317.93186129
2330.52346996
2330.16286451
2329.32207609
2308.12665901
2307.03164253
2304.58283246
2242.74147889
2241.34415931
2238.25031666
596.272161928
592.759974084
562.121948576
543.567688923
534.278863773
530.624988746
530.594154934
533.159349495
537.900494217
544.664664986
553.652150338
565.157026182
579.384788276
596.439934625
616.295901994
638.863591293
664.020684731
691.592026
721.371652028
753.138777001
786.684893873
821.836102579
858.424088297
896.280815206
935.237227499
975.147308503
1015.90012673
1057.39771897
1099.55759148
1142.30088002
1185.54817538
1229.23495315
1273.31747939
1317.75141073
1362.48931514
1407.48512692
1452.69432974
1498.07342231
1543.58025508
1589.1748536
1634.82068859
1680.4875945
1726.15469145
1771.80934992
1817.44341818
1863.04978238
1908.6164798
1954.11621606
1999.49882449
2044.68829342
2089.56729262
2133.94936448
2177.35528063
2219.07592923
2258.04934871
2292.28685533
2317.99513415
2328.03764688
2301.03308456
2233.80896301
294.00517546
294.001738796
294.000916805
294.000491183
294.000209574
294.000070887
294.000022564
294.000009709
294.000007296
294.000007326
294.000007898
294.000008647
294.000009155
294.000010131
294.000010012
294.000011968
294.000009729
294.000014239
294.000007136
294.000003623
294.73252403
294.160048595
294.038998772
294.012680743
294.003931071
294.000973716
294.000182401
294.000019985
293.999995143
293.999993722
293.999995659
293.999998118
293.999999855
294.000002779
294.000002934
294.000008211
294.000003365
294.000013335
293.999991549
293.999977857
338.66066346
300.282459207
295.035380582
294.20675359
294.04426967
294.008650971
294.001384739
294.000166664
294.000004265
293.999989762
293.999992216
293.999996247
293.999999287
294.000003745
294.000004772
294.000012093
294.000007127
294.000018988
293.99998395
293.999955362
1234.67964961
416.980272668
316.05945724
297.295173838
294.442968236
294.063195648
294.008834324
294.001052771
294.000087861
293.999992785
293.9999903
293.999995641
294.000000196
294.000006055
294.000008508
294.000017341
294.000014149
294.00002744
293.999986575
293.999962439
1615.04673008
704.354609728
378.746698489
309.314478899
296.244306946
294.297676893
294.039736214
294.004824678
294.000474041
294.000021546
293.999989565
293.999994581
294.000000749
294.000008116
294.000012333
294.000022906
294.000022886
294.000039759
294.000009862
294.000023729
1424.47156521
1244.65144669
477.073664737
330.443194896
300.181400872
294.882236022
294.122413673
294.01593353
294.001744047
294.000136997
293.999995523
293.999993829
294.00000142
294.000010494
294.00001687
294.000029583
294.000034164
294.00005625
294.000049883
294.000108602
1264.09584083
1945.09782132
592.794762236
357.535746182
306.12786554
295.925152779
294.287325295
294.040780473
294.004974968
294.000476352
294.000022155
293.999994785
294.000002477
294.000013293
294.00002214
294.000037192
294.000047435
294.000074956
294.000095959
294.000193034
1141.17690696
2192.15159525
737.495411611
389.575842113
313.868158456
297.492882447
294.564298537
294.087230735
294.011820917
294.001295693
294.000099344
294.000000239
294.000004095
294.000016398
294.000027877
294.000045268
294.000061582
294.000093759
294.000139472
294.00026126
1043.1882251
2037.30025023
952.995877929
430.004771632
323.771151046
299.693866539
294.989154215
294.165059088
294.024621351
294.003022317
294.000284846
294.000016217
294.000006734
294.000019724
294.000033813
294.000053376
294.000075546
294.000111083
294.000175769
294.000308559
967.141916614
1873.77674604
1252.58421323
482.805841794
336.487864827
302.687916794
295.609126084
294.286915837
294.046590448
294.006322032
294.000681466
294.000054749
294.000011435
294.000023216
294.000039671
294.000061103
294.000088466
294.000125993
294.00020366
294.000339416
908.186857984
1733.74445947
1626.07081596
549.335051008
352.658896494
306.684393647
296.488090521
294.469739222
294.08213035
294.012191395
294.001461712
294.000138373
294.000020389
294.000026894
294.000045172
294.000068085
294.000099716
294.000138034
294.000223557
294.000358231
862.79882834
1615.99719757
2000.52515413
641.486403275
374.069359602
312.069806386
297.722836802
294.73741135
294.137352542
294.022090434
294.002903293
294.000307235
294.000037959
294.000030977
294.000050078
294.00007403
294.0001089
294.000147075
294.00023646
294.000368416
827.703547065
1512.04704546
2229.54345576
790.450393433
403.240485069
319.262547506
299.424928336
295.12019639
294.220430492
294.038098434
294.005437796
294.000629887
294.000072406
294.000036099
294.000054222
294.000078731
294.000115823
294.000153216
294.000243607
294.00037282
802.823765049
1401.42304801
2136.49040893
993.973039758
440.462133848
328.524710332
301.709433945
295.655117824
294.342096831
294.063121153
294.009718462
294.001219512
294.000138682
294.000043669
294.000057554
294.000082059
294.00012045
294.000156697
294.000246221
294.000373557
786.577309773
1301.86798135
2005.35528593
1264.01827063
489.898130449
340.696254969
304.794088872
296.399815851
294.51779599
294.101323919
294.016728607
294.002259152
294.000262973
294.000056491
294.0000602
294.000083963
294.000122854
294.00015782
294.000245359
294.000372043
777.402961807
1220.83948408
1882.32130543
1593.16575997
556.374891811
357.118710091
309.051921405
297.448752161
294.771096649
294.158860025
294.027954891
294.004041478
294.000490108
294.000079826
294.000062576
294.000084461
294.00012318
294.000156901
294.00024188
294.000369192
774.310212222
1158.75941463
1776.79303531
1927.61932108
655.518191916
380.687451406
315.152282988
298.957919231
295.13836563
294.244891878
294.04564134
294.007029628
294.000895483
294.000123194
294.000065592
294.000083646
294.000121606
294.000154235
294.000236449
294.000365571
776.523117842
1113.11681256
1686.21679441
2191.87190533
820.606796474
415.145215703
323.837448961
301.116634298
295.667264636
294.372057579
294.073053033
294.011939672
294.00160332
294.000203366
294.000071019
294.000081711
294.000118327
294.000150081
294.000229568
294.000361515
783.511166032
1082.05079804
1587.5625075
2133.3056498
1046.95310282
461.291777557
335.593566001
304.122207625
296.416308808
294.556995549
294.114784146
294.019851284
294.002813919
294.000349191
294.000082113
294.000078999
294.000113544
294.000144658
294.000221601
294.000357208
794.828882456
1061.8467217
1501.6715561
2028.67201672
1334.02739663
525.255630405
351.805239738
308.348290968
297.480434686
294.824149372
294.177474621
294.032387077
294.00484602
294.000609397
294.000104703
294.000076115
294.000107461
294.000138142
294.000212811
294.000352748
810.064372307
1050.4327032
1434.4431659
1934.31455778
1652.73750777
616.66879367
374.682591257
314.391364836
299.011019053
295.21035346
294.270816305
294.051972931
294.008200731
294.001065019
294.000149007
294.000074116
294.000100298
294.000130672
294.000203388
294.000348171
828.835316163
1046.45479861
1385.90630899
1858.25034698
1954.21898257
747.342271916
407.388544983
323.108296012
301.232267137
295.769375204
294.408651598
294.082161491
294.013650885
294.001848427
294.000232654
294.000074873
294.000092323
294.000122358
294.000193474
294.000343501
850.773917773
1048.82608416
1353.39384998
1793.18953503
2148.32991059
946.696840043
454.172715739
335.407706005
304.403973524
296.569036189
294.60918383
294.127900763
294.022348941
294.003170498
294.000385455
294.000081683
294.000083911
294.000113288
294.000183159
294.000338669
875.52319457
1056.38712122
1331.10535387
1726.58354068
2113.89766503
1197.50656576
516.824517889
351.993819546
308.806161692
297.693483601
294.895835361
294.19587313
294.035963229
294.00535861
294.000656715
294.000100277
294.000075649
294.000103546
294.000172489
294.000333622
902.792763882
1068.39142923
1317.09792985
1669.69826249
2047.23006597
1474.07912009
603.011416028
374.705878508
314.950926486
299.278297169
295.302764681
294.295418241
294.056897888
294.00891254
294.001126385
294.000140458
294.000068514
294.000093229
294.000161477
294.000328298
932.3153555
1084.29078237
1310.49417533
1627.28704904
1988.56775293
1739.06694072
723.795178149
406.414583069
323.608648564
301.527315627
295.879470618
294.439516369
294.088559233
294.014579269
294.001921363
294.000218686
294.000064174
294.000082478
294.000150134
294.000322643
963.834202926
1103.62529534
1310.46558495
1598.4365565
1944.64833745
1964.84165819
890.200026273
451.007060288
335.739870247
304.699977002
296.69021347
294.645001942
294.13554209
294.023434558
294.003237198
294.000361967
294.000065488
294.000071527
294.000138471
294.000316617
997.091195656
1125.93174576
1315.96383974
1580.14894492
1912.85588215
2133.55022287
1102.52356036
511.027510343
352.012420631
309.028168544
297.803245733
294.931282682
294.203597892
294.036950774
294.005364122
294.000613327
294.000077279
294.000060783
294.00012651
294.000310196
1031.86198392
1150.79093198
1325.82879322
1568.26345279
1876.64575225
2131.34999827
1334.86569615
587.870951449
372.989116309
314.75248195
299.298169358
295.321494791
294.299834404
294.057087447
294.008720239
294.001039402
294.000107492
294.000050946
294.000114295
294.000303373
1067.99281275
1177.93523234
1339.4746977
1562.0493406
1844.74462947
2097.46772934
1558.16048252
688.686217449
400.565353367
322.36622796
301.306259344
295.848940415
294.433664001
294.086474701
294.013899677
294.001741213
294.000168913
294.000043192
294.000101902
294.00029615
1105.3416093
1207.12141301
1356.48320558
1561.26702715
1820.69863445
2066.31534307
1751.72445303
820.483762887
437.47125616
332.573689103
304.014216643
296.559553248
294.617425895
294.12858779
294.021729247
294.002868476
294.000281682
294.000039469
294.000089458
294.000288544
1143.77032334
1238.12390782
1376.49867165
1565.53550485
1804.93665144
2044.20083773
1909.09116726
984.247504718
486.908464255
346.217953066
307.651953954
297.510635131
294.866290689
294.187808876
294.033317715
294.004636332
294.000476716
294.000042947
294.000077176
294.000280583
1183.14717172
1270.73184481
1399.18385088
1574.32178515
1796.66575639
2030.94217648
2034.05539735
1171.39897574
552.381379343
364.23692312
312.472272704
298.766684481
295.19739972
294.269316676
294.050081127
294.007342298
294.000799998
294.000058661
294.000065419
294.000272315
1223.34251451
1304.7347831
1424.18560024
1586.97895749
1794.62827934
2024.50887035
2130.28561032
1363.53128987
635.492212937
387.299267622
318.681145815
300.388201802
295.628041681
294.378774836
294.073732191
294.011381111
294.001317597
294.000094356
294.00005477
294.000263804
1264.24989796
1339.95481283
1451.16509991
1602.69407088
1796.36167088
2015.42316544
2148.92995673
1535.66445391
736.199417508
416.102352575
326.500723588
302.442434872
296.177148125
294.522437072
294.106303185
294.01726295
294.002121866
294.000161611
294.000046135
294.000255137
1305.79588998
1376.27084479
1479.89639606
1621.00650841
1801.19397799
2006.21740855
2143.34944223
1677.71951345
855.388596462
452.386188355
336.367637762
305.038157961
296.871032633
294.707966315
294.150265467
294.025643725
294.0033398
294.000277363
294.000040885
294.000246429
1347.91145947
1413.56865923
1510.18749633
1641.63411701
1809.09487255
1999.76429165
2134.92295346
1790.98025678
989.392845574
498.311813762
348.891488281
308.327843039
297.745118226
294.944859013
294.208623585
294.037357577
294.005143296
294.000465945
294.000041074
294.000237834
1390.52884637
1451.74126409
1541.87631642
1664.37603845
1820.04016184
1997.22205493
2129.0278008
1879.51391927
1131.70871174
556.218696437
364.837030781
312.505579698
298.844079805
295.244475277
294.284938192
294.053441263
294.007760162
294.000761661
294.000049753
294.000229572
1433.58529659
1490.69457333
1574.828042
1689.06270529
1833.89713202
1998.76701346
2126.86226004
1950.30112121
1271.23124006
627.845601702
385.080732207
317.801058255
300.221054393
295.619843358
294.383278528
294.075144505
294.011484437
294.001211718
294.000071352
294.000221915
1477.02198161
1530.34401895
1608.92392322
1715.53242586
1850.45542716
2004.16020552
2128.38144169
2008.26709813
1398.28060852
713.557819445
410.601698812
324.480898065
301.937604172
296.085427841
294.508127817
294.103924842
294.016684891
294.001879385
294.000112137
294.000215259
1520.78151242
1570.60878093
1644.05059166
1743.6208052
1869.45939538
2012.98158897
2133.01607054
2055.68161268
1508.24297522
811.322208333
442.459855566
332.854900053
304.065308716
296.657208334
294.664294412
294.141431101
294.02381119
294.002847243
294.000180774
294.000210207
1564.8067897
1611.40827931
1680.09450838
1773.15858495
1890.63141161
2024.74311799
2140.0251732
2093.66442724
1600.50480555
916.10918996
481.805648026
343.313154134
306.693728156
297.35381555
294.856963125
294.189493376
294.033398862
294.004220462
294.000288959
294.000207651
1609.04096431
1652.66003178
1716.93751031
1803.96720103
1913.67623744
2038.92604561
2148.61030017
2122.68608167
1674.41417824
1023.0480143
530.018862505
356.383083269
309.940577146
298.198042583
295.091780988
294.250107651
294.046071366
294.006129839
294.000452109
294.000208884
1653.42867082
1694.27941394
1754.45436372
1835.85544867
1938.28462441
2055.02180261
2158.11074227
2143.73524659
1733.39751082
1124.86094398
587.944118888
372.715912813
313.953756481
299.21717527
295.374794779
294.325385346
294.062534384
294.008733902
294.000690055
294.000215732
1697.92029942
1736.18503596
1792.51936712
1868.62916005
1964.15101676
2072.56411255
2168.02319385
2158.00541443
1780.41517173
1215.56883844
655.104404018
393.108512095
318.92635786
300.445416771
295.712661792
294.41753026
294.083568792
294.012220322
294.001027763
294.000230727
1742.47702631
1778.30655152
1831.01772873
1902.10816075
1990.9990055
2091.16093295
2177.90812447
2166.44468811
1816.90825442
1292.01425429
729.142535203
418.57816741
325.144114442
301.932203659
296.113800921
294.52894727
294.110037435
294.016808154
294.00149611
294.000257352
1787.07104159
1820.58585717
1869.84662905
1936.1240876
2018.5658936
2110.43283808
2187.36590429
2169.69069443
1843.36475538
1351.69510612
807.72135257
450.381485963
333.025686763
303.749028718
296.589268266
294.662309098
294.142885006
294.022748908
294.002132737
294.000300246
1831.68199282
1862.97339103
1908.91016142
1970.51125406
2046.58474402
2129.98517158
2196.12121031
2168.44859423
1861.11912196
1398.9471395
883.887958263
489.20545516
343.111909047
305.994239851
297.15342531
294.820571684
294.183124709
294.030325037
294.002982593
294.000365682
1876.29403208
1905.42734145
1948.12332996
2005.12133368
2074.82581675
2149.48953789
2203.95347938
2163.35517014
1871.51991962
1436.46096256
952.407441989
534.66330384
356.131663393
308.822875061
297.828463126
295.007561875
294.231903502
294.039856638
294.00409947
294.000461816
1920.88938397
1947.9077712
1987.40824286
2039.8228595
2103.09612044
2168.65637137
2210.67414476
2154.91311749
1875.60397157
1465.36189485
1009.05398113
586.264447628
373.035808574
312.480686881
298.649316443
295.228557139
294.290565939
294.051708317
294.005547343
294.000599609
1965.43559624
1990.36042586
2026.67222094
2074.46640626
2131.13845043
2187.26838666
2216.13872436
2143.54935478
1874.23234717
1486.40713749
1053.94755939
641.365323306
394.610369747
317.307011587
299.665560834
295.490355613
294.360621122
294.066281051
294.007400978
294.000792996
2009.87660659
2032.70758406
2065.80114364
2108.88467615
2158.73033326
2205.1039304
2220.22431974
2129.63116867
1868.20590703
1500.72061033
1090.32499386
695.370764562
421.02269988
323.73096897
300.946629095
295.801853491
294.443766845
294.084008356
294.009746137
294.001060379
2054.12988995
2074.8475541
2104.65993849
2142.8738297
2185.67414138
2221.94871375
2222.78828712
2113.36229245
1858.08252807
1509.24523777
1120.19832563
744.88790113
451.532111336
332.26262383
302.599832785
296.176732199
294.542227504
294.105396881
294.012685822
294.001425106
2098.0679541
2116.62482359
2143.04854158
2176.23041736
2211.73920097
2237.5604471
2223.64383805
2094.81009037
1844.19340509
1512.53131225
1144.03640359
786.115994381
486.497831097
343.468905192
304.779651057
296.634318853
294.658755713
294.131019588
294.016341096
294.001917686
2141.48735994
2157.80624637
2180.70669293
2208.64420437
2236.54045567
2251.43898746
2222.13220888
2073.3962013
1826.21711684
1510.54268033
1161.90973696
820.170585203
523.819923649
357.54976723
307.655934035
297.196043545
294.795948897
294.161402551
294.020841012
294.002575328
2183.84059504
2197.66984543
2216.56703331
2238.34085622
2256.76464827
2256.66431152
2202.17706891
2043.89010984
1802.7285177
1503.09775991
1174.04472146
848.733909322
561.172892404
374.284087315
311.415792841
297.889045616
294.956695596
294.197078453
294.026329207
294.00344693
2224.3643611
2235.33884146
2249.60527433
2264.19192309
2271.5512377
2254.25320701
2172.82730059
2007.85544334
1774.09175401
1490.58855471
1180.91610725
872.631017109
595.534559083
394.31727544
316.315496044
298.751571981
295.144622026
294.238644248
294.032975165
294.004595721
2261.94279324
2269.57247413
2278.38695825
2284.47955569
2278.74020917
2241.11282079
2135.94027516
1966.10394846
1740.47387997
1473.06964716
1182.62364638
891.867428974
625.750951458
417.708792717
322.590048867
299.825907679
295.362828433
294.286533367
294.040955665
294.00609374
2294.46923377
2297.93977227
2299.87812311
2295.07239126
2272.14732843
2207.03593799
2088.27631816
1917.80761674
1701.73505521
1450.59264538
1179.25185354
906.360389472
652.248980101
443.673202336
330.420319286
301.164016579
295.614791153
294.34092661
294.050594197
294.008031974
2317.94668044
2315.90198568
2308.58911299
2288.92569792
2242.31664247
2157.49237757
2031.10155637
1863.32413062
1658.12419235
1423.40771334
1170.982909
916.087362815
675.172424551
470.083043049
340.979054875
302.894681144
295.908710916
294.402336601
294.062165216
294.01051986
2324.8320653
2314.98022458
2294.47588442
2254.24130195
2189.20055042
2094.11445461
1965.8016674
1803.77441436
1610.66170185
1392.46509786
1158.60399905
921.53950579
694.686779107
495.839379783
354.982850071
305.249482703
296.264665475
294.472257244
294.076010585
294.013694635
2292.74822566
2272.59716767
2239.47814681
2188.96697783
2116.77757255
2019.18885291
1893.77882612
1740.0618238
1559.98208663
1358.25213803
1142.48462991
922.929051355
710.649384161
520.086555465
372.609580495
308.765779321
296.733902646
294.554856228
294.092713402
294.017735169
2223.58812204
2200.37667314
2164.2377195
2111.86745057
2039.98090381
1945.7338503
1827.22694968
1684.01047241
1517.53464813
1331.50938577
1132.11329301
927.883045644
728.219674377
545.131602242
394.245951675
314.597979048
297.421412739
294.658933224
294.11330566
294.02285387
294.001203355
294.000976342
294.001260446
294.001162252
294.001277261
294.001306767
294.001267977
294.001355087
294.001225757
294.001308092
294.00116016
294.00122333
294.00109267
294.00112903
294.001029709
294.001037383
294.00097282
294.000953248
294.000922417
294.000878702
294.000877918
294.000813767
294.000838308
294.000757479
294.00080257
294.000708596
294.000769812
294.000665876
294.000739301
294.000628187
294.000710449
294.000594543
294.000682799
294.000564107
294.000656077
294.000536256
294.000630084
294.000510705
294.00060481
294.000487016
294.000580157
294.000464681
294.000556068
294.000443354
294.000532493
294.000422798
294.000509384
294.000402846
294.000486691
294.000383383
294.000464371
294.000364334
294.000442388
294.000345656
294.000420716
294.000327328
294.000399337
294.000309344
294.000378251
294.000291714
294.000357471
294.000274455
294.000337022
294.000257591
294.000316923
294.000241131
294.000297239
294.000225113
294.000278348
294.000209656
294.000260398
294.000194933
294.00024346
294.000180985
294.000227684
294.000167884
294.000213244
294.000155733
294.000200483
294.000144676
294.000189859
294.000134923
294.000182066
294.000126778
294.000178261
294.000120727
294.000179702
294.000117423
294.000188998
294.000117952
294.000208323
294.000123666
294.000243034
294.000136845
294.000296959
294.000160158
294.000380008
294.000198054
294.0004995
294.0002557
294.000672067
294.000341137
294.000911905
294.000463892
294.001244126
294.00063743
294.00169697
294.000878895
294.002306003
294.001209708
294.003120355
294.001658441
294.004191047
294.002258682
294.005600943
294.003058088
294.007433966
294.004113159
294.00980772
294.005494676
)
;

boundaryField
{
    inletfuel
    {
        type            fixedValue;
        value           uniform 294;
    }
    inletair
    {
        type            fixedValue;
        value           uniform 294;
    }
    outlet
    {
        type            zeroGradient;
    }
    axis
    {
        type            empty;
    }
    leftside
    {
        type            fixedValue;
        value           uniform 294;
    }
    burnerwall
    {
        type            zeroGradient;
    }
    front
    {
        type            wedge;
    }
    back
    {
        type            wedge;
    }
}


// ************************************************************************* //
