/*--------------------------------*- C++ -*----------------------------------*\
| =========                 |                                                 |
| \\      /  F ield         | OpenFOAM: The Open Source CFD Toolbox           |
|  \\    /   O peration     | Version:  2.4.x                                 |
|   \\  /    A nd           | Web:      www.OpenFOAM.org                      |
|    \\/     M anipulation  |                                                 |
\*---------------------------------------------------------------------------*/
FoamFile
{
    version     2.0;
    format      ascii;
    class       volVectorField;
    location    "1000";
    object      U;
}
// * * * * * * * * * * * * * * * * * * * * * * * * * * * * * * * * * * * * * //

dimensions      [0 1 -1 0 0 0 0];

internalField   nonuniform List<vector> 
1629
(
(-0.829832750513 1.78237836902e-15 58.5847702581)
(-3.73611161645 7.13960220471e-16 58.717767345)
(6.62825816131 5.55678326317e-17 54.8154515326)
(1.28801050527 1.52249239658e-15 59.9594937073)
(-1.49727378099 7.38733607506e-16 59.8372741447)
(4.03645407337 6.75739809408e-17 53.7806102517)
(0.749492858638 2.9612677228e-16 62.4821947357)
(-2.09917263524 -1.56391582786e-15 61.9466218804)
(2.85343719915 -7.09997850745e-15 54.9081669882)
(0.705322363628 -2.97649633208e-13 63.2954130795)
(-1.42820501892 -4.48652861767e-13 62.2612167787)
(2.93529564906 -1.05677066014e-12 51.5530590784)
(0.542941515587 -5.15560767399e-11 62.6895492837)
(-0.962486379799 -9.08406596845e-11 60.7332127686)
(1.93981371424 -5.50345878384e-12 48.2760391713)
(0.405720500005 -1.64750464586e-10 62.1380460528)
(-0.451076334245 -8.25338559242e-11 59.242194345)
(1.39836299962 4.64889463837e-11 46.1424080278)
(0.299079582076 -1.40677887408e-10 61.4044375218)
(-0.083523981356 -6.32518712686e-11 57.5894518626)
(1.06144510653 8.11861669036e-11 44.5130399293)
(0.240250736584 -8.66137902452e-11 60.4400982345)
(0.172311903273 -4.22102020185e-11 55.8226059117)
(0.876939060235 7.86063636284e-11 43.2650864061)
(0.215809417118 -5.31628402866e-11 59.2245110885)
(0.337285405809 -2.81243687577e-11 54.0080558925)
(0.766218997467 5.58339081655e-11 42.2660038251)
(0.211410574525 1.01346445961e-10 57.7295375135)
(0.436706395371 -5.73904337413e-12 52.1779555576)
(0.700710888229 3.43717784304e-11 41.3913349146)
(0.216302915983 4.33861815512e-11 55.9643881185)
(0.497301002499 1.40421433814e-11 50.3582053412)
(0.673213037784 6.18051666362e-11 40.5616992509)
(0.228427375254 3.53806650883e-11 53.9908615237)
(0.537977068991 9.32168811573e-11 48.5760830953)
(0.668099698371 1.14861850409e-10 39.7374431876)
(0.248694705689 2.75180243054e-11 51.8858497639)
(0.558657087578 6.54749442636e-11 46.8305609234)
(0.658091778266 7.69614697804e-11 38.8810474776)
(0.256281106635 -1.08543073739e-11 49.6899123279)
(0.552623918418 -7.22733965892e-11 45.0860977056)
(0.636943311531 2.57357283502e-11 37.9593297278)
(0.246379973717 1.85091722634e-10 47.3924808084)
(0.533891701921 -3.78194438822e-11 43.3010208255)
(0.618549104405 -8.65180746406e-11 36.9493441138)
(0.237042565314 4.06053846052e-11 44.9444043544)
(0.516858935647 -1.77806646586e-11 41.4179178477)
(0.604210621485 -3.64717064409e-11 35.8166967081)
(0.224348172386 8.97283364419e-12 42.2616619199)
(0.492478054563 -9.50865639484e-12 39.3535090877)
(0.586739547844 -1.78866899025e-11 34.5067190207)
(0.204068280518 1.30887560473e-12 39.2857917263)
(0.457762411478 -3.51494057319e-12 37.0366929056)
(0.565508580309 -2.50539011094e-12 32.965491936)
(0.180287760512 6.62892222849e-14 36.0724234405)
(0.418125695542 -1.07919907193e-12 34.4643609109)
(0.53944052515 -8.43258693521e-13 31.1732368341)
(0.155053419808 9.44405351902e-14 32.7959537279)
(0.371896535447 6.14780728511e-14 31.7290641141)
(0.499307593598 3.67162372491e-13 29.1742761241)
(0.127713660487 8.42174890723e-13 29.6650059337)
(0.315795443596 2.2819245223e-12 28.9889980758)
(0.439876057624 3.57520905412e-12 27.071865693)
(0.10032312517 3.40916082667e-11 26.8439630465)
(0.254720091064 1.15785707395e-10 26.4090243998)
(0.367410749834 2.94320640135e-11 24.9948861427)
(0.0759834185609 1.40901856233e-11 24.4231443078)
(0.197101718729 3.47884161622e-11 24.1123041544)
(0.293548727622 1.88439323038e-11 23.0606494376)
(0.0565666189911 -4.28499750792e-11 22.4189166275)
(0.148946083691 1.11554584212e-11 22.1560044779)
(0.22785913061 9.14035215844e-11 21.3448990294)
(0.042461152501 -2.04464045984e-12 20.7921889309)
(0.112467489744 9.93384308071e-12 20.5378365866)
(0.175166770382 2.55475043437e-11 19.8767642474)
(0.033046193959 2.66907705983e-11 19.4754155688)
(0.0871644037937 -5.36646081216e-11 19.2174853629)
(0.136606270339 -1.23742053336e-10 18.6492735482)
(0.0271744064702 -1.20612351189e-11 18.3919238505)
(0.0708850816921 -4.27358042773e-11 18.1333055451)
(0.110628679535 -5.94927573209e-11 17.6275285362)
(0.0234965227188 -1.72343095977e-11 17.4723948204)
(0.0605583876511 -4.76003848493e-11 17.220879794)
(0.0936531854382 -8.43806300005e-11 16.7639076027)
(0.0208947499307 -4.70078121524e-13 16.6686336776)
(0.0533962275965 6.13155706816e-13 16.4310446168)
(0.081897271802 1.49121266173e-11 16.0174201937)
(0.0187624449747 -2.65829378578e-11 15.9493712082)
(0.047755003824 -5.62942957248e-11 15.7294883342)
(0.0729265571675 4.50927978569e-12 15.3563442727)
(0.0167285873803 4.08665166738e-12 15.2942167984)
(0.0425404880556 1.36049305753e-11 15.0929544224)
(0.0649108705725 4.05069620539e-11 14.7573409707)
(0.014603393326 1.76664495215e-11 14.6971642607)
(0.0371485204193 5.10130521359e-11 14.5137453086)
(0.0567242880879 9.11858232023e-11 14.2121864047)
(0.0125334486327 2.06227041083e-11 14.1578491448)
(0.0318953433997 5.84636252517e-11 13.990993675)
(0.0487483349474 9.74543262305e-11 13.7199650766)
(0.0107255892291 -8.44138652245e-12 13.6699094893)
(0.0272851143938 -2.54349306949e-11 13.5185643884)
(0.0417160303097 -6.50725319603e-11 13.2749778517)
(0.00923578661798 -1.11794102352e-10 13.2241606079)
(0.0234687661571 -6.83798667301e-11 13.0877317747)
(0.035863359385 -3.34927255942e-11 12.8692121661)
(0.00802957270357 -9.94340369451e-11 12.8121468434)
(0.0203718771415 -3.6520393654e-11 12.6903407417)
(0.0310947393349 -1.15979494832e-10 12.4951638284)
(0.007025842746 -1.08447704872e-10 12.4269879238)
(0.0178015666758 -1.04035304444e-10 12.3196431998)
(0.0271419959112 -1.11317417547e-10 12.1465510151)
(0.00611877663775 -1.73047929793e-11 12.0651242627)
(0.0155006776405 -4.33394836416e-11 11.9716250569)
(0.023634566909 -6.29024762698e-11 11.8192311794)
(0.00525274661153 -7.61221564281e-12 11.7269290698)
(0.0133092379386 -2.11555020161e-11 11.6460095724)
(0.0202994806487 -3.24813086983e-11 11.512444526)
(0.0044541038252 -3.55290408738e-12 11.4133349187)
(0.011277575239 -9.92839533311e-12 11.3439055086)
(0.0171861619082 -1.55551263133e-11 11.2274379138)
(0.00375929120648 4.45572151597e-11 11.1226929907)
(0.00950835786286 1.38905206338e-10 11.0639878746)
(0.0144696848618 7.21075542639e-11 10.9632556432)
(0.00315910473831 7.33955097002e-12 10.8524659845)
(0.00798421757724 1.91217551582e-11 10.8036508025)
(0.0121363775814 2.02997812092e-11 10.7173449255)
(0.00262963982332 2.3919874209e-11 10.6012415071)
(0.00664219209834 -3.02259736497e-11 10.5614039774)
(0.0100859674394 -9.30936671598e-11 10.4882017641)
(0.00216066477957 -9.03488227925e-12 10.3683402504)
(0.00545390177012 -2.81235105442e-11 10.336557138)
(0.00827081187746 -4.68253555373e-11 10.27515648)
(0.00175071866536 -7.84427660163e-12 10.1529266377)
(0.00441512114529 -2.21356994108e-11 10.1283200571)
(0.00668364694312 -3.55227859296e-11 10.0774849839)
(0.00139332180751 -6.96318508106e-11 9.95393795285)
(0.00350968457315 -2.08108698136e-10 9.93567145723)
(0.00530017773663 -2.29831205605e-10 9.89423269416)
(0.00108210516214 -2.52452457523e-11 9.77060592695)
(0.00272108818424 -7.00958906358e-11 9.75787278604)
(0.00409461677448 -1.05399145055e-10 9.72471736108)
(0.000818597751816 7.31700826469e-12 9.60197426125)
(0.00205341166517 2.36106525785e-11 9.59402689234)
(0.00307398148859 -1.05755283452e-10 9.56812234876)
(0.000600292575762 -1.85641372929e-11 9.44651529706)
(0.00150117633856 -5.3462497828e-11 9.44265242915)
(0.00223187268284 -9.37401042387e-11 9.42303527952)
(0.000418574249535 -2.20953998054e-11 9.30299793899)
(0.00104221261936 -6.27578460703e-11 9.30251671308)
(0.00153366597397 -1.03969513285e-10 9.28824502528)
(0.00027522035304 -1.77247528708e-11 9.170472205)
(0.000680817699855 -5.02369326735e-11 9.17271110889)
(0.000986064947249 -8.24662316904e-11 9.16289449532)
(0.000172790548517 8.51839921553e-11 9.04696732858)
(0.000422633080242 2.54253027353e-10 9.05130167011)
(0.00059569447792 2.15158076103e-10 9.04509864896)
(0.000118273731948 4.81870326616e-11 8.93061051319)
(0.000286420323038 1.42085000781e-10 8.93660962231)
(0.00039447231901 4.06591394136e-11 8.9333805766)
(0.000111920838464 6.7970602934e-12 8.81744744778)
(0.000280950506972 1.78856972061e-11 8.82461949561)
(0.000412074333379 2.22989022237e-11 8.8236964689)
(0.000121782894915 1.91960754447e-12 8.70445750917)
(0.000319228826618 5.42420086069e-12 8.71178824147)
(0.000503833106529 8.50088981055e-12 8.71195996474)
(0.00014834107521 -6.47426478638e-13 8.59197093906)
(0.000395506293693 -1.76017667387e-12 8.59865743626)
(0.000645939641539 -2.85401877376e-12 8.59883371495)
(0.000211093907467 -1.43859006584e-12 8.47626885654)
(0.0005666249663 -3.99341429732e-12 8.48171268238)
(0.000938278576044 -6.44733699232e-12 8.48101687344)
(0.000281350970574 -7.76520739695e-11 8.35237040992)
(0.000758399515421 -8.23655359401e-12 8.35567715348)
(0.00126047148864 4.20347920927e-11 8.35293048572)
(0.000139305915661 -1.72093933514e-11 8.21361827304)
(0.000390602202703 -4.80499779036e-11 8.21381559247)
(0.000629925478658 -8.04627931657e-11 8.20765659364)
(-0.00167046790044 1.81473859355e-11 8.046895103)
(-0.00430333022063 -7.16337784927e-11 8.04294033144)
(-0.00687428459515 -1.01790905887e-10 8.03204756971)
(-0.00334767059606 -5.30453173754e-11 7.8649005991)
(-0.00865020005272 -1.5147049101e-11 7.8570101827)
(-0.0137275224483 1.84183657229e-11 7.84179951812)
(-0.00361287407954 1.20988016947e-11 7.65738237983)
(-0.00933957518111 2.38904732918e-11 7.64705486419)
(-0.0147890370598 -1.14983317933e-11 7.62930831775)
(-0.00181775334386 -8.47232537804e-12 7.53706901861)
(-0.00471213787807 8.87175091667e-11 7.52639668963)
(-0.00747413654592 1.12603849627e-10 7.50845994892)
(-2.02444815194 -7.84311819135e-12 18.8160482999)
(-0.182180204928 6.96547914088e-12 23.6406136708)
(0.248869318221 4.15697919798e-12 27.4011072021)
(0.421886931875 6.1607868698e-12 29.3801812432)
(0.51792670984 1.31114954261e-11 30.4794801003)
(0.553211692452 1.09217571861e-11 31.0849790783)
(0.565810848772 8.75582366854e-12 31.3943862092)
(0.579566343419 2.10223458252e-11 31.5127008676)
(0.59578748478 3.64548256647e-11 31.5017265802)
(0.604600901887 3.62244762595e-11 31.3769752439)
(0.602642886902 2.46463753043e-11 31.1298515421)
(0.5987229757 1.09978682308e-11 30.7629882307)
(0.598762160828 1.20113512389e-11 30.265010043)
(0.600384813107 -3.28275177e-12 29.599769806)
(0.60040809207 1.64999411627e-11 28.7216281251)
(0.591769614733 -3.53241057374e-13 27.6021684333)
(0.562870006602 3.77752425512e-13 26.2610638453)
(0.509051598417 6.32973906691e-12 24.7654510983)
(0.436840501769 -3.4414040221e-12 23.2085641177)
(0.358707260608 3.28648211108e-12 21.6861764677)
(0.28576405152 3.74531515154e-11 20.2719299559)
(0.224420089787 1.75189668835e-11 19.0102297153)
(0.177386886751 -7.53901387208e-11 17.9194108656)
(0.14431295374 -5.33111957098e-11 16.9903325884)
(0.121938186518 -4.06383917271e-11 16.195235024)
(0.106215758675 5.27779880395e-11 15.5053573624)
(0.0943789015026 5.60069773846e-11 14.8946822496)
(0.0840363782571 6.85071155679e-11 14.3415313534)
(0.0735513720064 1.38743648695e-10 13.8379582569)
(0.0633326384177 1.35158442791e-10 13.383192966)
(0.0542927128972 2.04892586896e-11 12.9718789878)
(0.0467305616765 -9.05886234969e-12 12.5966987109)
(0.0405345770787 -7.74434357568e-11 12.2508798361)
(0.0353855707391 -1.28861903539e-10 11.9287323813)
(0.0308326021286 -7.59795426648e-11 11.6261547103)
(0.0265004831871 -3.9761500454e-11 11.3419565578)
(0.0224283613188 -1.91532684422e-11 11.0774717165)
(0.0188642316908 4.98129530852e-11 10.8321435035)
(0.0158068918525 1.77153038692e-11 10.6035350828)
(0.0131233708667 -8.59179158077e-11 10.3901559656)
(0.0107472725339 -5.74826157609e-11 10.1913643398)
(0.00866850245809 -4.62696121819e-11 10.006506926)
(0.00685537387767 -1.98797900639e-10 9.83470667065)
(0.00527345164899 -1.28527020912e-10 9.67535256569)
(0.00393338653237 -2.03784697766e-10 9.52772428662)
(0.00282917438198 -1.29674870862e-10 9.39049666609)
(0.00191493683852 -1.42006308688e-10 9.26249746369)
(0.00120022518212 -1.1090672886e-10 9.14292749553)
(0.000691875627864 1.16126442268e-10 9.02996013806)
(0.000435835284413 -3.10199229188e-11 8.92231764451)
(0.000491203341168 2.44393165076e-11 8.81596068309)
(0.000655332958736 1.05925320768e-11 8.70624153435)
(0.000878103436899 -3.96670551312e-12 8.59386423168)
(0.00130556701313 -8.61801891177e-12 8.47574048749)
(0.00176616526167 7.87830258834e-11 8.3459394519)
(0.000815089804795 -1.13780564982e-10 8.19727748118)
(-0.00954632699613 -1.18670472392e-10 8.01669208557)
(-0.0188136149981 -1.83743097306e-11 7.82188527712)
(-0.020171224258 1.79689767661e-11 7.60670150753)
(-0.0101901787397 9.59610055819e-11 7.48566732537)
(-0.0208765895658 -3.05444598764e-12 1.90983385838)
(0.0933690477525 -4.74247447975e-11 1.96001834904)
(0.0683380589031 -5.20532738618e-12 1.97455395824)
(0.071587466268 -8.63987817792e-13 1.98482893856)
(0.0627444718693 -1.66401503716e-13 1.99019239346)
(0.0537553393403 -3.20975651881e-14 1.99391877922)
(0.0445089701189 -1.75290565912e-14 1.99571543614)
(0.0362559372145 -8.18564922456e-14 1.99638255448)
(0.0292619431433 -4.36567850914e-13 1.99637224166)
(0.0236615496542 -7.84789411309e-14 1.99605963393)
(0.0192986763601 -3.97508798118e-14 1.99567083488)
(0.0161849267309 -3.14351142918e-13 1.99521137352)
(0.0138547907076 -2.74418465429e-13 1.99493721181)
(0.0128954680039 -2.07935257915e-14 1.99436884307)
(0.0118074357027 -1.07025811981e-15 1.99448682865)
(0.0134748613002 -8.22398553503e-17 1.99334860174)
(0.0121249169478 -3.64147238085e-16 1.99467603701)
(0.0188350504911 5.67548888669e-15 1.99204119183)
(0.00830843034547 1.567494846e-13 1.99583813407)
(0.0266680277492 2.9137532928e-15 1.99769395431)
(0.087604222092 -6.51814529205e-12 1.64029755956)
(0.193056643024 -7.40473085003e-11 1.80937495363)
(0.162247940919 -1.44988199208e-11 1.90476457275)
(0.148446678467 -2.78505869789e-12 1.96074083329)
(0.120553634328 -5.64271329893e-13 1.98673219401)
(0.0976586762509 -1.18793352e-13 2.00003733237)
(0.0773644818655 -1.26245813174e-13 2.00507181811)
(0.0611960815475 -1.05483054264e-12 2.00620046056)
(0.0484341399664 -1.35620309826e-11 2.00544239935)
(0.0387454642329 -1.03518950716e-12 2.00403434148)
(0.0313951433745 -4.97695178816e-13 2.00258668969)
(0.0263337511674 -9.34735723947e-12 2.00105541542)
(0.0224416323916 -7.87084866114e-12 2.00009498758)
(0.0211002081807 -2.76567845963e-13 1.99838935399)
(0.0190471686428 -8.89643958322e-15 1.99844692716)
(0.022394481981 -9.99800654314e-16 1.9953753649)
(0.0196326469044 -1.30446364205e-14 1.99831045842)
(0.0316972508468 6.922477531e-14 1.99234630432)
(0.0181163519991 4.67146704228e-12 2.00382236752)
(0.0246164226105 5.24470040797e-14 2.01071519904)
(0.101668257417 -8.58666529517e-12 1.63939555905)
(0.39842458989 -6.16175883851e-11 1.79937229486)
(0.317365193791 -2.08465942117e-11 1.90535728611)
(0.243348890195 -4.97048148992e-12 1.96645375429)
(0.175605167388 -1.04521746152e-12 1.99505642874)
(0.132222331026 -2.32381222919e-13 2.00898897654)
(0.0998959027236 -2.7691382549e-13 2.01317402098)
(0.0768950878559 -1.668983803e-12 2.01273567581)
(0.0599307771762 -1.20925015294e-11 2.01034503342)
(0.0476320176229 -1.65886254268e-12 2.00751515761)
(0.0384684204338 -7.26959093818e-13 2.00491304089)
(0.0323312972606 -8.24190868511e-12 2.0023662992)
(0.027475670215 -7.12175085745e-12 2.00068881735)
(0.0260549560639 -4.03724499352e-13 1.99807441792)
(0.0232726843563 -1.51033228639e-14 1.99775910031)
(0.0279891126374 -7.62589956267e-15 1.99343629805)
(0.0242563543939 -2.20435221367e-13 1.99669168712)
(0.0409275875383 1.00324199063e-13 1.98928965995)
(0.0268369806972 4.35182300551e-12 2.00799250526)
(0.0286845484245 8.36559459648e-14 2.02241296689)
(-2.66537334535 -1.11970530106e-11 4.45094965573)
(0.46419863166 -5.52276355801e-11 2.15983553442)
(0.417667107017 -2.46641863041e-11 2.04855698804)
(0.312632058681 -7.58574517632e-12 2.03117633467)
(0.22066366207 -1.75150568533e-12 2.02797238469)
(0.161871016969 -4.63553805277e-13 2.02797531913)
(0.120291448634 -1.09447414378e-12 2.02530322847)
(0.0914021879559 -2.76771720223e-12 2.02065322931)
(0.0706658643593 -1.16671712874e-11 2.01541472485)
(0.0560238624816 -2.20172230266e-12 2.01062148733)
(0.0452100860402 -9.8739706909e-13 2.00661200452)
(0.0381171837784 -7.61118629021e-12 2.0029648502)
(0.0323498720241 -6.46198918468e-12 2.0004472496)
(0.0309058909395 -5.22420656203e-13 1.99698530466)
(0.0273866304008 -8.87879691926e-15 1.99600537663)
(0.0335655358142 -4.97050252985e-14 1.99069310356)
(0.0289807984276 -3.05527559844e-12 1.99329260541)
(0.0519369512581 1.09112429854e-13 1.98463200114)
(0.0397466138114 6.29115202758e-12 2.00736285153)
(0.112771902049 7.61789855484e-14 2.01851006152)
(-0.954296060149 4.69918176832e-11 7.16117494447)
(0.155859597913 -1.16165323142e-10 2.67043244418)
(0.385133593573 -3.25415365378e-11 2.22531569251)
(0.326887992432 -1.05458229102e-11 2.11828976669)
(0.239705751818 -2.72272724757e-12 2.0735283931)
(0.178635754844 -1.27778794233e-12 2.05285566686)
(0.134231984897 -1.24564441233e-11 2.04038360872)
(0.102838137958 -1.35400447695e-11 2.03030266289)
(0.0798135893078 -1.14358767628e-11 2.02151399893)
(0.063546009525 -2.73052550148e-12 2.01435491395)
(0.0514376013712 -1.78164594252e-12 2.00872182462)
(0.0435769313944 -1.38843224736e-11 2.00386515251)
(0.0369873041125 -6.5329669364e-12 2.00040791301)
(0.0355577530965 -6.5819786561e-13 1.99605230186)
(0.031299129845 2.37132931106e-13 1.99423715535)
(0.0389120760992 -8.42230484362e-14 1.98782603338)
(0.0334096951644 -2.80285239192e-12 1.98905505133)
(0.0629941289543 1.12300188104e-13 1.97797276173)
(0.0511902296847 6.02186039417e-12 1.99611179918)
(0.175371881794 -2.76822073914e-12 1.98570155595)
(-0.490373952695 -7.53612035525e-11 9.22597328808)
(-0.174206993692 -1.97968720675e-10 3.37799291371)
(0.316000412133 -4.1876150295e-11 2.39124044504)
(0.309826882067 -1.35573555734e-11 2.19513872703)
(0.238641193519 -3.84323192381e-12 2.11584839376)
(0.184087069625 -1.99366048475e-12 2.07730355539)
(0.141475110409 -1.19363779405e-11 2.05556623033)
(0.110556303422 -2.22746200244e-11 2.04041944148)
(0.0869031856027 -1.17340675635e-11 2.02817536426)
(0.0698763453922 -3.46943595142e-12 2.01852472346)
(0.0569366736614 -7.64977013617e-12 2.01110813619)
(0.0485557957404 -1.28302550231e-11 2.00490351001)
(0.0412640397118 -1.2346246514e-11 2.00036252564)
(0.0398839355957 -8.96328081614e-13 1.99499291391)
(0.0348628859893 4.55070345179e-12 1.99212826809)
(0.0437579224258 -3.72298226704e-14 1.98441153042)
(0.0370731111185 -2.83797337348e-12 1.98350892691)
(0.072027872552 1.32261922348e-13 1.96918704804)
(0.0580949843592 7.92934176907e-12 1.97594646918)
(0.207068502789 -2.67713148012e-12 1.94140953309)
(-0.257259247106 -9.38347833897e-11 11.2115610811)
(-0.468837692239 -2.78849174695e-10 4.26324931555)
(0.187080136631 -4.94299516416e-11 2.50098732644)
(0.26735349605 -1.61096494253e-11 2.24650408473)
(0.22377623035 -4.964005391e-12 2.14648162183)
(0.181354428086 -2.82710114526e-12 2.09653499983)
(0.143565802987 -2.10283331268e-11 2.06827445679)
(0.114976047189 -2.06600697738e-11 2.04940277294)
(0.0919812376671 -1.19129971518e-11 2.0344671735)
(0.0749392485415 -4.23180713663e-12 2.0226110776)
(0.0616061192627 -7.97785966979e-12 2.01346846934)
(0.0529501610676 -1.27428804666e-11 2.00589679096)
(0.0450836167045 -1.18438926116e-11 2.00019465583)
(0.0437691781866 -1.16735659678e-12 1.99374851678)
(0.037951294952 3.76417758754e-12 1.98965476621)
(0.0478459754931 -9.80549411808e-16 1.9805452866)
(0.0396595801014 -2.8246364067e-12 1.9769078947)
(0.0778886748234 1.52109021563e-13 1.95935793874)
(0.0597390276791 7.56246622561e-12 1.9522807053)
(0.208653184469 -2.24826496501e-12 1.89899426527)
(-0.101911441618 -8.45019358907e-11 12.9295847109)
(-0.577063406484 -1.22274095985e-10 4.85615900886)
(0.0413844913081 -5.07919423493e-11 2.59124824495)
(0.231830779396 -1.78165277101e-11 2.27348396322)
(0.209186968991 -6.00812911864e-12 2.16494231349)
(0.176868908912 -3.43085597777e-12 2.10954167974)
(0.143453405484 -1.64572449445e-11 2.07770392515)
(0.117355664282 -1.91819053979e-11 2.05659331505)
(0.0955074585746 -1.20867700514e-11 2.03989298801)
(0.078874784975 -5.88002919969e-12 2.0263194066)
(0.065456981008 -1.78118533383e-11 2.01565125177)
(0.0567159423963 -1.30247410222e-11 2.00678788435)
(0.0483853533931 -1.17825801171e-11 1.9999134307)
(0.0471241548944 -1.44504366452e-12 1.99238540299)
(0.0404748014053 3.28926304321e-12 1.98694940066)
(0.0509963336426 3.27448411252e-14 1.97647648412)
(0.041049327101 -2.75075025809e-12 1.96981667698)
(0.0803343387176 1.74399732486e-13 1.94962806702)
(0.0569113403518 7.35843168726e-12 1.92963261667)
(0.190355847751 -1.92250747136e-12 1.86627128948)
(-0.00683828029465 -6.8671336365e-11 14.4462324577)
(-0.53688355392 -8.89936969292e-11 5.45537002994)
(-0.0577707093146 1.63273528783e-11 2.76504861247)
(0.20624509879 -1.46064805553e-11 2.30210494488)
(0.200325302809 -6.57307907673e-12 2.1809101751)
(0.173774182166 -3.6449164831e-12 2.11983185727)
(0.143051023319 -6.26290428804e-12 2.0850600254)
(0.118764566988 -1.71368800399e-11 2.06228907319)
(0.097988297406 -1.26326181551e-11 2.04440028359)
(0.0818985772395 -1.86418501554e-11 2.02953867003)
(0.0685606831846 -2.62367599522e-11 2.01757707611)
(0.0598504131169 -1.36338620997e-11 2.00754348971)
(0.0511381493347 -1.15168670739e-11 1.99953352081)
(0.0498885475393 -1.94841492986e-12 1.99096573702)
(0.0423842706228 2.68959219054e-12 1.98414737407)
(0.0531273664797 5.72559017148e-14 1.97243652344)
(0.0412938948457 -2.63042563483e-12 1.96277656587)
(0.0797918159067 2.00293302581e-13 1.94081803958)
(0.0513525745012 7.16441390159e-12 1.91054389881)
(0.164733060924 -1.66571020322e-12 1.84478913275)
(0.0694564440756 -3.78295722578e-11 15.8201769868)
(-0.455427649187 7.94523201275e-11 6.19753356093)
(-0.139208416415 2.55744569912e-11 3.06465320023)
(0.175723996108 -1.16017731935e-11 2.34618531776)
(0.192634712958 -6.82602147761e-12 2.20017859952)
(0.170511893848 -4.23981089684e-12 2.13014516213)
(0.142285554613 -1.29701009075e-11 2.09161358527)
(0.119464608757 -1.66592627911e-11 2.06700057433)
(0.0996805315874 -1.24543857833e-11 2.04812118969)
(0.084174196527 -1.70557848126e-11 2.03226095603)
(0.0710010445232 -2.41001033764e-11 2.01921730583)
(0.0623780707062 -1.4106792832e-11 2.00815318304)
(0.0533395583746 -1.164593135e-11 1.99908116399)
(0.0520361184341 -5.04768894608e-12 1.98955788948)
(0.0436741519615 -7.11306482965e-13 1.98138952417)
(0.054249869277 -2.74274839443e-14 1.9686385645)
(0.0405540949635 -2.48018833621e-12 1.95623182548)
(0.0769427042609 2.30193846711e-13 1.9333911576)
(0.0444305874643 6.95808222533e-12 1.89575117784)
(0.137908152961 -1.4560477145e-12 1.83172834125)
(0.138813813934 -1.8558001555e-11 17.0443680294)
(-0.378773536709 2.60810925159e-11 7.01561146356)
(-0.216786817283 -6.38982962786e-11 3.47964221605)
(0.137957438488 -1.38433251706e-11 2.40250602156)
(0.184625621172 -7.25726897033e-12 2.22215959615)
(0.16626595145 -4.73896392029e-12 2.14065847804)
(0.140971553233 -1.60015908027e-11 2.09763490628)
(0.119522817505 -1.5561737986e-11 2.07092369275)
(0.100737559167 3.4695122524e-13 2.05113985492)
(0.0858319699443 -1.54812806821e-11 2.0345027307)
(0.0728683067688 -2.26781296756e-11 2.02057751402)
(0.0643458518937 -1.4437887392e-11 2.00863420691)
(0.0550149985071 -1.72692578782e-11 1.99860295552)
(0.0535764589074 -6.893762313e-12 1.98824198619)
(0.0443793857003 -6.0033155433e-12 1.97881922064)
(0.0544472605149 -2.35195274108e-14 1.96526744426)
(0.0390416571382 -2.32140600355e-12 1.95050982387)
(0.0724842035625 2.58148913054e-13 1.92755076612)
(0.0370807218323 6.57220178987e-12 1.88512326464)
(0.112881178816 -1.29042605226e-12 1.82461593501)
(0.205285989186 -2.19332762192e-11 18.1278592324)
(-0.310603257736 -1.44076998553e-10 7.87073806649)
(-0.292030186326 -6.76990805425e-11 3.95484311211)
(0.083364808557 -1.61884318349e-11 2.47704974577)
(0.175833190737 -7.79283103219e-12 2.2463148828)
(0.160830650988 -5.32172991031e-12 2.15108249739)
(0.139184157022 -2.33810867853e-11 2.1030406227)
(0.119090817823 -1.52815029317e-11 2.07408457507)
(0.101341946086 -2.91491612809e-12 2.05349479135)
(0.0870177670931 -1.45012463887e-11 2.03628846837)
(0.074271177721 -2.13150197299e-11 2.02168593742)
(0.0658241365834 -9.48457532211e-12 2.00902538474)
(0.0562160606933 -1.66140436441e-11 1.99816028213)
(0.0545523251591 -7.29919054082e-12 1.98710164039)
(0.0445677739059 -5.02098134085e-12 1.97656791972)
(0.0538529511607 3.36185274856e-12 1.96246645489)
(0.0369843018274 -2.36389471148e-12 1.94582050126)
(0.0670472564722 2.25558845479e-13 1.92333155656)
(0.0299577276403 1.76510753182e-12 1.87819023465)
(0.0910677677226 -1.34946956896e-12 1.82165613736)
(0.271142737859 -1.57034124166e-11 19.0593972925)
(-0.238736426216 -7.12051807787e-11 8.73314353135)
(-0.338795094155 9.56985058076e-11 4.35963095668)
(0.00566339028667 -1.00262149746e-11 2.59058465362)
(0.163557478583 -7.85405776316e-12 2.27018476026)
(0.154201263463 -5.82319705503e-12 2.16048352824)
(0.137193904614 -2.09865196486e-11 2.1074561048)
(0.11845001773 -1.57411606306e-11 2.07642887028)
(0.101740575744 -1.65159203284e-11 2.05521774882)
(0.0879110626668 -1.47313386293e-11 2.03766468294)
(0.0753410842715 -2.09296130397e-11 2.02259523438)
(0.0669051461481 -1.55805384226e-11 2.00938491684)
(0.0570165752311 -1.65297994411e-11 1.99782474587)
(0.0550339703111 -7.50417277871e-12 1.986218048)
(0.0443303750976 -4.84756712352e-12 1.97474654423)
(0.052628357187 3.02927890013e-12 1.96033414464)
(0.0346006461178 -8.42982253612e-12 1.94226950821)
(0.0611514336022 6.85640493014e-14 1.92065268712)
(0.0234638971235 2.27563187442e-12 1.87432860052)
(0.0727905364005 -5.88188915766e-12 1.82140096131)
(0.328650162292 -1.18121197407e-12 19.7906690639)
(-0.165823636457 8.32329815057e-12 9.64676673552)
(-0.338247969371 2.9981228913e-10 4.74426190162)
(-0.0697379997698 1.34299302889e-11 2.74703792545)
(0.147956793485 -6.67324033747e-12 2.29180595491)
(0.149234066792 -6.36258879615e-12 2.16866756677)
(0.136214530274 -3.41198955388e-11 2.11087318522)
(0.118327551224 -1.67959935809e-11 2.07810776086)
(0.102334637441 -1.56081500641e-11 2.0564530949)
(0.0887512301585 -1.5615609433e-11 2.03874832543)
(0.0762333538962 -3.06412041124e-11 2.02339878742)
(0.0676979857325 -1.86158886206e-11 2.0097939975)
(0.0575059557727 -1.62932987302e-11 1.9976766655)
(0.0551108784764 -7.91762699913e-12 1.98566721647)
(0.043771061714 -1.15283100055e-11 1.97344232875)
(0.0509434208346 1.01096272305e-11 1.95892770492)
(0.0320826794792 -6.96307771165e-12 1.93987979487)
(0.0551893429721 -5.28125872715e-14 1.91936528019)
(0.0177997656734 2.4611828251e-12 1.87290414715)
(0.0578149482306 -5.61595499364e-12 1.82279814442)
(0.377828550535 1.26665009302e-10 20.3696140702)
(-0.0958891522791 8.91807191412e-11 10.5967912755)
(-0.305293983759 3.59896726945e-10 5.22399113929)
(-0.128982041155 1.47933681218e-10 2.97173663832)
(0.131028060874 8.64181484839e-14 2.31897655532)
(0.148502593073 -6.26735970737e-12 2.17849616571)
(0.137173218509 -3.06767504123e-11 2.11469568378)
(0.119353155485 -2.29538793071e-12 2.07988453457)
(0.103455528611 -2.54585588003e-11 2.05761970584)
(0.0897470672153 -1.74273100224e-11 2.03978659416)
(0.0770871663802 -2.90870917471e-11 2.0242498475)
(0.0683091038145 -1.93004290511e-11 2.01036050172)
(0.05777700157 -1.91300494121e-11 1.9978034804)
(0.0548812581748 -8.4958583592e-12 1.98551823292)
(0.0429962334824 -1.39901529354e-11 1.97271872348)
(0.0489614712979 8.28870420531e-12 1.95826964876)
(0.0295872238523 -6.00281153745e-12 1.93861582034)
(0.049437203002 -1.60497404943e-13 1.91929269852)
(0.0130311962364 2.45993033649e-12 1.87335852496)
(0.045701923322 -2.48159109918e-12 1.82515124008)
(0.425651041218 9.53019417215e-11 20.8187681687)
(-0.0231048667614 1.2212534153e-10 11.5653066831)
(-0.26592901937 2.99068103178e-10 5.83369869911)
(-0.183033882283 2.28553281477e-10 3.29846901122)
(0.110327787896 9.01899269336e-12 2.36416864966)
(0.150576702924 -5.76918494548e-12 2.19409419953)
(0.139508799165 -5.02719583237e-11 2.12098696294)
(0.121342646411 -6.41355423018e-12 2.08279392748)
(0.105033000685 -2.58829846884e-11 2.05926816997)
(0.0909273913216 -1.97053865953e-11 2.04109154405)
(0.0779598750575 -4.41829406611e-11 2.02533251341)
(0.0688128321888 -2.02934623687e-11 2.01120468692)
(0.0579103022249 -1.98463102758e-11 1.99829239933)
(0.0544407167207 -4.21907035646e-12 1.9858304493)
(0.0421056766924 -1.30273757486e-11 1.97261679369)
(0.0468287777529 6.91734767279e-12 1.95835561751)
(0.0272338553124 -5.35023176842e-12 1.93840511411)
(0.0440749466979 -2.63906126013e-13 1.92025627674)
(0.00914007425585 2.3601618207e-12 1.87523389097)
(0.0359728201052 -1.5383048808e-12 1.82801332869)
(0.471431680392 -1.25169476224e-11 21.1295495548)
(0.0586793070989 1.33887632402e-10 12.5112052782)
(-0.226270654308 3.91364492739e-10 6.54480569132)
(-0.236325357419 3.42996730749e-10 3.73058214451)
(0.0802636190717 2.3957966859e-11 2.44556342637)
(0.15154757864 -4.29505530583e-12 2.21934272413)
(0.141569693692 -4.17493761868e-11 2.13124069245)
(0.123405477257 -1.13331309884e-11 2.08749895255)
(0.10664302926 -2.54926209381e-11 2.06176388425)
(0.0921410976036 -2.13875008814e-11 2.04288260177)