/*--------------------------------*- C++ -*----------------------------------*\
| =========                 |                                                 |
| \\      /  F ield         | OpenFOAM: The Open Source CFD Toolbox           |
|  \\    /   O peration     | Version:  2.2.x                                 |
|   \\  /    A nd           | Web:      www.OpenFOAM.org                      |
|    \\/     M anipulation  |                                                 |
\*---------------------------------------------------------------------------*/
FoamFile
{
    version     2.0;
    format      ascii;
    class       volVectorField;
    location    "1000";
    object      U;
}
// * * * * * * * * * * * * * * * * * * * * * * * * * * * * * * * * * * * * * //

dimensions      [0 1 -1 0 0 0 0];

internalField   nonuniform List<vector> 
1629
(
(0.103058591834 0 61.8568607756)
(-3.52306612745 0 61.7714338259)
(7.35466596509 0 57.2777975546)
(0.721760730358 3.22850847544e-16 64.2723030238)
(-2.96812632227 1.49090761276e-15 63.4430753841)
(4.3528764449 2.93993902638e-16 56.8223525839)
(0.831349282533 1.89521489189e-15 66.037010899)
(-2.74277727072 9.21266335418e-15 64.6030868006)
(3.26394878724 6.07693947854e-14 56.8624780419)
(0.897941683584 8.72234420014e-14 67.0245152254)
(-1.70400455783 7.28423389325e-13 64.7385911889)
(2.92770732356 9.51879330566e-12 52.3602405625)
(0.670599900753 1.99940492403e-13 66.6447815465)
(-1.13276436424 1.14005866588e-12 63.3343382993)
(1.90153862817 6.13704204732e-12 49.0670196079)
(0.489727963261 -4.97140756106e-14 66.1977547951)
(-0.532205410412 1.27386283788e-12 61.8661007002)
(1.39187825554 3.93363809146e-12 46.9524377191)
(0.33166789047 -1.38859494769e-10 65.3693907975)
(-0.139284561211 -3.95286488724e-12 60.0181117013)
(1.02271684706 3.01118465555e-11 45.1811051401)
(0.239879458 -2.26799957237e-10 64.184956742)
(0.126368338292 -2.20043905161e-11 57.9504762828)
(0.803108276374 1.79438214285e-11 43.8010009134)
(0.204479654842 -1.44008038715e-10 62.5806237935)
(0.291961483522 -3.17378478666e-11 55.7348779498)
(0.675614294517 3.07967517256e-12 42.6541078433)
(0.206489023819 -9.20692566356e-11 60.4930744553)
(0.387064124578 -3.04845066551e-11 53.4311800464)
(0.60719700122 6.57215705939e-12 41.6074672701)
(0.224593907993 -5.01750841812e-11 57.915571678)
(0.436056322148 -2.1947652599e-11 51.080268869)
(0.574201227026 1.64221341435e-11 40.564986466)
(0.240820982033 -2.36852790028e-11 54.9189212233)
(0.4545601369 -1.06052020154e-11 48.6916960182)
(0.558552269541 2.3038504508e-11 39.4612909964)
(0.246120883195 -9.98257117746e-12 51.6427208114)
(0.453083170548 -2.51709923941e-12 46.2594255354)
(0.549806858873 1.95916013157e-11 38.2600234536)
(0.239174184664 -2.31701038424e-10 48.2483536582)
(0.437253580167 -4.33687809044e-11 43.7789879492)
(0.53949291775 1.41564980445e-12 36.9378442703)
(0.223126183627 -2.09627214431e-11 44.8828970914)
(0.410786084003 8.0289121883e-11 41.2718069577)
(0.521901025781 1.88515233863e-11 35.4975128574)
(0.202529896065 7.4005651425e-12 41.6525416009)
(0.37796871237 3.51233334494e-11 38.7794087742)
(0.496360004766 -1.46105832196e-12 33.9629980285)
(0.180691927011 3.8486766744e-12 38.6183196974)
(0.342144415606 7.13199844251e-12 36.3471896657)
(0.463881378046 -1.40325723188e-11 32.3681055246)
(0.159855350023 -1.96540273459e-12 35.8077812502)
(0.306623000477 -6.5951312733e-12 34.0142352278)
(0.427970798735 -2.27116313892e-11 30.7500028364)
(0.140801020564 -7.94778782582e-12 33.2213502653)
(0.27291200307 -1.98765543486e-11 31.8015560488)
(0.390668151277 -4.42346906555e-11 29.1349314061)
(0.123292556587 1.52200237521e-10 30.8554527489)
(0.240859750415 1.23007369317e-10 29.7268646603)
(0.352005488811 1.37717449981e-11 27.5523393807)
(0.107438263937 8.13203132499e-11 28.7064400858)
(0.211125848427 1.71836721897e-10 27.8051153558)
(0.313760615052 6.12881001068e-11 26.0323973238)
(0.0933244292543 -1.26698401761e-10 26.7627251997)
(0.184213309234 6.03912871905e-12 26.0394812695)
(0.277526000074 7.70266441436e-12 24.5932583269)
(0.0811098706959 2.14136938401e-11 25.0076517811)
(0.160682679536 5.62395048964e-11 24.4246229009)
(0.244891566846 1.52985094426e-11 23.2429869416)
(0.0705613018698 1.65540995476e-11 23.4183995652)
(0.140200305372 3.03586763424e-11 22.94611939)
(0.215802742687 1.57254862923e-11 21.9782156487)
(0.0611451312761 4.88949644377e-12 21.9802884167)
(0.121766157786 7.28964299291e-12 21.5957697801)
(0.188955541903 -2.90799925442e-12 20.8002856964)
(0.0527773328854 5.32757159674e-12 20.6846804386)
(0.105290668496 1.10448922412e-11 20.3700173448)
(0.164480449964 1.74808098902e-11 19.7138332093)
(0.0455261437576 1.16456298146e-13 19.5187050801)
(0.0909601658333 -8.57066102898e-13 19.2598756869)
(0.142902628294 -6.89313046494e-12 18.7164515753)
(0.0394730812455 1.9909996732e-11 18.4659389365)
(0.078975751789 5.37466972775e-11 18.2519204408)
(0.124718579049 -3.6837474392e-11 17.7999733061)
(0.0343611385426 -4.4909891733e-11 17.5069560011)
(0.0688324472543 -1.1315257975e-10 17.3290027058)
(0.109208352108 -9.65570972796e-11 16.9513251608)
(0.0297607811759 7.94925438727e-12 16.6329254438)
(0.059669834519 5.29493691708e-13 16.4841312445)
(0.0950310814443 -7.08964237639e-11 16.1669476265)
(0.0256422314607 -2.19359487314e-12 15.8412008127)
(0.0514487734637 -4.95244390707e-12 15.7161379736)
(0.0821949855893 -1.09655891272e-11 15.4485237695)
(0.0220639476228 -2.64931690727e-12 15.1241929709)
(0.0442968222295 -5.69419109461e-12 15.0185424847)
(0.0709620088987 -9.3990930657e-12 14.7917206062)
(0.0190105450075 1.96939288606e-11 14.4743900534)
(0.0381873466105 4.32123579445e-11 14.3847078398)
(0.0613215796789 7.56733079252e-11 14.1916188226)
(0.0164855733468 1.49849506984e-11 13.8831292234)
(0.0331332952522 3.1365020993e-11 13.8066569161)
(0.0533262383642 4.61964477557e-11 13.6416013537)
(0.0143574467944 -2.15112816763e-10 13.3404850989)
(0.0288704068068 -1.52013452257e-10 13.2749791109)
(0.0465629146722 -1.5252492076e-10 13.1332802558)
(0.0124284706289 -2.61479217113e-11 12.8427488566)
(0.0249998091985 -4.44932702111e-11 12.7863798853)
(0.0403890862767 -4.57182085551e-11 12.664204846)
(0.0106738895589 -6.87464431981e-12 12.3896551539)
(0.0214755912463 -1.30214084443e-11 12.3409304137)
(0.0347418875259 -1.43980588332e-11 12.2351455857)
(0.00912335095181 1.46237659063e-11 11.9783020387)
(0.0183593555675 3.16161601349e-11 11.9359867416)
(0.029733528951 5.29972252227e-11 11.8439901064)
(0.00777045117147 9.81092859281e-11 11.6052459057)
(0.015639160151 1.93908039161e-10 11.5683166468)
(0.0253518974278 2.42081201512e-10 11.4879402774)
(0.00659794010114 -3.07948202135e-11 11.2669751519)
(0.0132808326796 -8.28492900233e-11 11.2345871437)
(0.0215461381896 5.10509285776e-12 11.1640316819)
(0.00558295092375 -3.24440341624e-11 10.9602274157)
(0.0112386841315 -6.64040077826e-11 10.9316853068)
(0.0182451624758 -8.01037040555e-11 10.8694611887)
(0.00469970606104 -1.25680260622e-11 10.6821970245)
(0.00946100819033 -2.50043178673e-11 10.656929226)
(0.0153670107948 -3.16331247387e-11 10.6018050425)
(0.00392671921728 -1.61592882733e-11 10.4306647657)
(0.00790473050194 -3.38362946213e-11 10.4082015141)
(0.0128433167433 -5.15157128685e-11 10.3591602604)
(0.00325238394432 5.54926190482e-11 10.2036553735)
(0.00654674919985 8.99754318053e-11 10.1836081071)
(0.0106382319847 2.66665665087e-11 10.1398059257)
(0.0026669298121 -2.71324287403e-11 9.99907695596)
(0.00536756539201 -6.01405713488e-11 9.98111941704)
(0.0087214394312 -1.08354160048e-10 9.94184719742)
(0.00215715956548 3.74291264287e-12 9.81495850026)
(0.00434065645008 8.61004433784e-12 9.79881270285)
(0.00705058447967 1.69359972275e-11 9.76346729157)
(0.0017148185037 2.31060265561e-11 9.6495779167)
(0.00344948963176 4.95300350825e-11 9.63500492425)
(0.00559947006978 8.20578750216e-11 9.60306976688)
(0.00133574368 9.66681289649e-11 9.50099186234)
(0.00268579736497 1.54774805905e-10 9.48778309007)
(0.00435537525288 6.39506811257e-11 9.45880957401)
(0.0010097872214 -2.99616510661e-10 9.36721133907)
(0.0020291082646 -4.22259458707e-10 9.35518034317)
(0.00328522352785 -3.53555506914e-10 9.32876985193)
(0.000728544712376 6.08381630392e-11 9.24665870971)
(0.00146247844413 1.29083130432e-10 9.23563856091)
(0.00236142300749 6.92010164525e-11 9.21143542982)
(0.00049133414672 9.1527289859e-11 9.13767230425)
(0.000984586472094 2.00730368172e-10 9.12751693923)
(0.00158206505115 1.07495209346e-10 9.10520972002)
(0.000296502191675 -6.46206165361e-11 9.03827203965)
(0.000592118559188 -1.31463237169e-10 9.02885457739)
(0.000942014278589 -6.94201395092e-11 9.0081716855)
(0.000128802588318 -1.09551217499e-11 8.94650289363)
(0.000254254668638 -2.14153850276e-11 8.93771356581)
(0.000390637885022 -2.52363420236e-11 8.91841830569)
(-1.28741513458e-05 2.06165713091e-11 8.86175775767)
(-3.12700102435e-05 4.42456731809e-11 8.85350834395)
(-7.57758426286e-05 7.28687164482e-11 8.83540792944)
(-0.000104799339414 6.57618733432e-12 8.78170491166)
(-0.00021644538982 1.35790935271e-11 8.77393038419)
(-0.000378491429461 1.97842430513e-11 8.7568785186)
(-0.000170822372869 -2.65969569426e-13 8.7012969685)
(-0.000349632199639 -6.60273293896e-13 8.69394512926)
(-0.000597099803418 -1.48067431272e-12 8.67781871764)
(-0.000247870917918 -3.83782004743e-12 8.61907459925)
(-0.000505409348661 -8.07186127983e-12 8.61210893038)
(-0.00085403423176 -1.24520468433e-11 8.59681766996)
(-0.000330717879362 -3.68062534293e-12 8.53324494021)
(-0.000673106706025 -7.67153915608e-12 8.52664892291)
(-0.00113207878285 -1.14888243078e-11 8.51214608882)
(-0.000434974717561 6.97319651276e-12 8.43884386714)
(-0.000884520108664 1.47506846321e-11 8.43260924604)
(-0.00148433700377 2.30948450664e-11 8.41886789927)
(-0.000652881744476 1.76106243398e-11 8.33035668058)
(-0.00132618966248 3.76393490801e-11 8.32445937064)
(-0.00221940289226 4.82070286318e-11 8.31142813145)
(-0.00107214037221 6.8960908665e-12 8.20754940266)
(-0.00217727443204 1.42137114186e-11 8.20191911071)
(-0.00364259995947 2.04053824052e-11 8.18946097837)
(-0.0021755625078 4.61766025669e-11 8.04120572805)
(-0.00440265951751 9.85448350316e-11 8.03571760646)
(-0.0072966516507 7.16583811373e-11 8.0236467761)
(-0.00145550712475 2.09055935998e-11 7.92844481114)
(-0.00294099864931 4.41019379883e-11 7.92315959551)
(-0.00485461891231 6.95129331382e-11 7.9116464451)
(-2.06443539054 7.54829248183e-11 17.7702770624)
(-0.224717866626 -8.50660467892e-12 23.2659537829)
(0.150376355643 -1.27991399282e-12 27.3151718847)
(0.282247199606 9.71297034976e-12 29.2752638974)
(0.369520522065 -3.23414812363e-11 30.3623845659)
(0.416991920259 -1.47261177588e-11 30.9386306267)
(0.447332383513 4.54656156507e-11 31.1977807178)
(0.471622043735 7.53787745807e-11 31.2401601061)
(0.4915563841 7.11991112702e-11 31.1104540644)
(0.508527481331 3.20676421694e-11 30.8285410254)
(0.519973749275 5.57149183567e-12 30.3806866205)
(0.521746513761 -6.27888040054e-12 29.7670086078)
(0.513477236027 -4.72232812864e-11 29.0056817045)
(0.495371808128 -4.08054871944e-11 28.1223321036)
(0.470892521173 -4.4266504917e-11 27.1469875058)
(0.441759375137 -7.79068681919e-11 26.0993546276)
(0.407383614315 -3.03849383149e-11 25.0082847514)
(0.370276063409 1.69023009654e-11 23.9085746035)
(0.333014211269 -2.21178956829e-11 22.8249007217)
(0.29827889908 -2.74047419658e-11 21.7726338184)
(0.26638966288 -4.73996912028e-12 20.7554026334)
(0.235868231898 -2.24594968844e-11 19.7819016007)
(0.207246354395 3.48320715119e-11 18.8640112415)
(0.181535214786 -2.05969966151e-11 18.0055268428)
(0.159661128945 -4.3605358047e-12 17.2034873615)
(0.140796356918 -1.21253072542e-10 16.4489865046)
(0.123224817314 -1.38787544151e-10 15.7421853179)
(0.107095240202 6.92139498154e-12 15.087993678)
(0.0928491903311 -1.34668185318e-11 14.4845353305)
(0.0805357675956 1.24902926931e-10 13.9289061615)
(0.0702878271574 5.71178834582e-11 13.4161143035)
(0.0615784675355 -7.2656927322e-11 12.9390018819)
(0.0535551780105 -3.25982635585e-11 12.4961597802)
(0.0461640276835 -1.17955831237e-11 12.0892403938)
(0.0395789165216 8.38066007706e-11 11.7168015477)
(0.0337981125232 1.82168984494e-10 11.3765946762)
(0.0287626357318 3.78766481241e-11 11.0661254982)
(0.0243836256648 -5.15423921443e-11 10.782988643)
(0.0205554602142 -3.15078123197e-11 10.5250946042)
(0.0171899658834 -7.09080888304e-11 10.2908217719)
(0.0142428448443 -2.26823078636e-11 10.0786805824)
(0.0116763828853 -5.95358744122e-11 9.88695991719)
(0.00943542119878 3.27366578794e-11 9.7139901955)
(0.00748645584605 1.89555365133e-11 9.55829692364)
(0.00581419720487 1.74153564439e-11 9.41813199858)
(0.00437475497301 -2.68051414837e-10 9.29164966224)
(0.00313123086606 5.7023821864e-11 9.17739336628)
(0.00208173753879 6.55754353936e-11 9.07382512993)
(0.00121992178574 -3.46678362645e-11 8.97907572345)
(0.000476789981299 -2.77153282531e-11 8.89128501946)
(-0.000152766709513 1.09430446563e-10 8.80996534167)
(-0.000561210908077 2.48965306567e-11 8.73291359576)
(-0.000857918358074 -2.90401980425e-12 8.65514472712)
(-0.00120977222819 -1.73284155264e-11 8.57528956693)
(-0.001593234047 -1.53351521006e-11 8.49168026597)
(-0.00208300018361 3.18527861231e-11 8.39941383525)
(-0.00310422522184 1.47188441021e-11 8.29291588796)
(-0.00509751695663 2.46729121923e-11 8.1717265215)
(-0.0100784009957 6.48871227236e-11 8.00651024466)
(-0.00666364502344 4.95736977634e-11 7.8953695107)
(-0.0291166580784 -9.43156491042e-15 1.90912247486)
(0.0753941533994 -1.08060720521e-13 1.96398272227)
(0.0483339883883 -7.6090295236e-13 1.97392793783)
(0.0547310045632 -1.71345790638e-12 1.98410722713)
(0.0489465835559 -6.17243703448e-12 1.9889034563)
(0.0433835143696 -4.30856628923e-11 1.99280477219)
(0.0368181417788 -5.10634462303e-12 1.99468777692)
(0.0307212062057 8.36788915184e-13 1.99560417462)
(0.0253043135298 1.47417345049e-11 1.9957792998)
(0.0208692673584 8.30399620513e-12 1.9956468807)
(0.0173373383365 9.05244093905e-13 1.99537939609)
(0.0148229259054 6.92735143689e-14 1.99501574656)
(0.0129167785989 5.92469394289e-15 1.99480302841)
(0.0122605432054 7.76221886165e-15 1.9942800072)
(0.0113847508245 1.0395962845e-13 1.99442699721)
(0.0132018574426 -1.70611243609e-13 1.99330972952)
(0.0119533174512 -5.78625044323e-12 1.99465075265)
(0.0187335900859 -1.53093164732e-13 1.99202507984)
(0.00825010994507 -4.05117000882e-15 1.99582792845)
(0.0266475536436 -6.22711713332e-17 1.99768240635)
(0.080672371553 -1.03348169506e-13 1.76856100326)
(0.161092939207 -1.7473099908e-12 1.88343972269)
(0.120114703098 -2.19883569005e-11 1.92553428958)
(0.117844015651 -1.59682803161e-11 1.96745517523)
(0.0961038127051 -1.16662045005e-11 1.98476250633)
(0.0802842677871 -3.12596815347e-11 1.99670148003)
(0.064752545112 -7.72114742348e-12 2.00148509956)
(0.052351180732 9.05146428705e-13 2.00346313696)
(0.0421553398785 1.29299211632e-11 2.00338785679)
(0.0343443924726 1.12712803982e-11 2.0026277633)
(0.0282974033673 1.54191315776e-12 2.00160452491)
(0.0241802363588 2.86087761862e-13 2.0003981679)
(0.0209519948155 5.03814041681e-14 1.99964483714)
(0.0200902649162 9.98219521103e-14 1.9980898953)
(0.0183728472073 3.85030987243e-12 1.99824511175)
(0.0219594801906 -2.04409007711e-13 1.99524348566)
(0.0193588456483 -5.3775421322e-12 1.99822481568)
(0.0315360712608 -2.76703151858e-13 1.99229216772)
(0.0180208128064 -9.2844286757e-15 2.0037878685)
(0.0245812169006 -1.64582214485e-16 2.01067656065)
(0.034606999084 -1.63459828794e-14 1.41184010001)
(0.25209896518 -2.27581172263e-12 1.87404498645)
(0.204327783615 -2.72589248151e-11 1.89359646287)
(0.185311460419 -2.4235249148e-11 1.96011098504)
(0.137614988485 -1.49195193509e-11 1.98459168376)
(0.109326843644 -2.85550577636e-11 2.00091245507)
(0.0842128737232 -9.1787160616e-12 2.006350142)
(0.0664059962542 7.61945303854e-13 2.00794652387)
(0.0525337805502 1.23780967938e-11 2.00690462101)
(0.0424699784454 1.14193607621e-11 2.00520324762)
(0.034808191004 1.98028045156e-12 2.00331176498)
(0.0297767691106 3.04485482179e-12 2.00129456794)
(0.0256965365499 5.19328639413e-13 1.99995399566)
(0.0248456837256 1.71726233625e-13 1.99758330871)
(0.0224624509279 2.91616032956e-12 1.99742749832)
(0.0274671217071 -2.15230427007e-13 1.99321878786)
(0.0239275829793 -5.37376079267e-12 1.99655036115)
(0.0407350719959 -5.26108540732e-13 1.98920103859)
(0.0267193668546 -1.73536997538e-14 2.00793579285)
(0.0286387138066 -3.44272747e-16 2.02234461803)
(-1.60261511929 1.0247113938e-11 3.51329047954)
(0.640894888923 -2.03845176268e-12 2.04270176492)
(0.285957298676 -2.42474427771e-11 1.95239701607)
(0.272780036913 -2.61545962383e-11 1.99046316362)
(0.184183774956 -1.63367614365e-11 2.00170285653)
(0.13985164918 -2.62002350207e-11 2.01287076932)
(0.103871082468 -1.02703982983e-11 2.01465503101)
(0.0802264007554 9.8020133946e-13 2.01368406114)
(0.0625627400134 1.16247431355e-11 2.01060351327)
(0.0503133448031 1.14198664438e-11 2.00743408641)
(0.0410982130016 2.28227945443e-12 2.00441498988)
(0.0352271270688 -1.64555845198e-12 2.00148880555)
(0.0303189906746 5.33909468672e-12 1.99943149327)
(0.02952122577 3.77491729084e-13 1.99630204162)
(0.0264550595147 2.70268762653e-12 1.99554252202)
(0.0329664600577 -2.03709504017e-13 1.99038824095)
(0.0286031919839 -5.13616626371e-12 1.99309427959)
(0.0517172487565 -3.16804729155e-12 1.98450918831)
(0.0396060292608 -5.1947905274e-14 2.00728578856)
(0.112704268114 -2.27919414425e-15 2.01843889507)
(-0.093363348683 6.80379982686e-12 7.07178035369)
(0.500766137084 -2.09638127974e-12 2.32063274638)
(0.32856543887 -2.15380095529e-11 2.13794077696)
(0.323209256776 -2.49851990826e-11 2.07062466033)
(0.212836096964 -2.54909564573e-12 2.04156456068)
(0.161728017109 -2.26717442983e-11 2.03426066334)
(0.119086245696 -1.08144934104e-11 2.02745504774)
(0.0918852913316 1.03442158995e-11 2.02171810486)
(0.0713922367563 1.14023786235e-11 2.01553436118)
(0.0574824008917 1.44422120156e-11 2.01035624668)
(0.0469756252212 2.80438616079e-12 2.00594582594)
(0.0404130562119 -8.05242947017e-13 2.00198117583)
(0.0347423349265 5.37187418552e-12 1.99910170002)
(0.0340230106853 5.88141833629e-13 1.9951663144)
(0.0302625986614 2.66304746872e-12 1.99363408233)
(0.0382474806953 -1.77419652667e-13 1.98742695197)
(0.0329909730525 -4.76378876896e-12 1.98879502999)
(0.0627533153035 -1.17637325574e-12 1.97781349405)
(0.0510441729513 5.46547708519e-14 1.99601484581)
(0.175285686613 -1.20462373009e-15 1.98566434592)
(-0.251486449732 4.21364455649e-12 9.18126874086)
(0.0485811556278 -1.31248408444e-12 2.88098250832)
(0.321102532728 -4.42677222829e-11 2.3481118915)
(0.301591730358 -2.58710314976e-11 2.15116194687)
(0.214139124161 -2.84485423847e-12 2.08692518871)
(0.169220834388 -2.03814893161e-11 2.05816949728)
(0.126846533354 -2.18683987444e-11 2.04177971792)
(0.099822790181 7.07955735861e-12 2.03078468739)
(0.0782700950619 1.07604637005e-11 2.02121106834)
(0.0635766944234 1.46025898673e-11 2.01373090149)
(0.0522135376467 3.28825651365e-12 2.00772294555)
(0.0451843235507 2.39240229553e-14 2.00256968593)
(0.0388507608778 5.18449036338e-12 1.99872788689)
(0.0382318850198 7.92969282281e-13 1.99387339319)
(0.0337436136819 2.42382659589e-12 1.9913619456)
(0.0430436437903 -1.56836581998e-13 1.98390183351)
(0.0366239174049 -4.42950564889e-12 1.98317616623)
(0.0717737008151 -2.89400931077e-12 1.96898361125)
(0.0579486235852 2.05337245763e-12 1.97582459774)
(0.206985108121 3.96218998068e-14 1.94135507578)
(-0.27044266626 1.86143122888e-11 10.8302241037)
(-0.225170906183 9.88092758286e-11 3.76010093827)
(0.277548875439 -3.37721181845e-11 2.46436692176)
(0.25078697852 -2.5684566882e-11 2.20245646645)
(0.203886667939 -4.64880059374e-12 2.12002398523)
(0.166561467075 -1.84034159429e-11 2.07664352922)
(0.128944526319 -1.13934868082e-11 2.05388493269)
(0.104220878125 1.75710471708e-12 2.03887680078)
(0.0831311188432 9.4120256983e-12 2.0266176767)
(0.0684611103646 8.92428799693e-12 2.01703097537)
(0.0566944851622 3.54591716933e-12 2.00945616199)
(0.0494364993723 8.03371427383e-13 2.00308328898)
(0.0425529533532 5.07807323999e-12 1.99820320123)
(0.0420383252101 9.03821105064e-13 1.99237116483)
(0.0367765264189 -1.87547925325e-12 1.98870655715)
(0.0471016066732 -2.34655827806e-13 1.97991140851)
(0.0391930663652 -4.19072035825e-12 1.97649318111)
(0.0776305637132 -5.89543418498e-12 1.95910351157)
(0.0595953820349 -6.86905834908e-13 1.9521300801)
(0.208584078137 -1.37467142408e-15 1.89891447783)
(-0.187604522063 1.66537300118e-11 12.4655402185)
(-0.403222157211 6.48840133532e-11 4.57410145194)
(0.174655310818 -2.98183731654e-11 2.51242514052)
(0.210034363642 -2.55325166416e-11 2.23486833707)
(0.191000434446 -6.73774057415e-12 2.13913441965)
(0.160059666437 -1.73015130054e-11 2.08853319795)
(0.128394914527 -1.84069819178e-11 2.06246505343)
(0.106266367819 -2.3631640219e-12 2.04505911467)
(0.0864257401233 7.99142066165e-12 2.03112996635)
(0.0722587862301 9.192870958e-12 2.01991853061)
(0.0604271643464 3.79208878953e-12 2.01098406294)
(0.0531269816127 1.46993834544e-12 2.00346679666)
(0.045793038634 4.94023351037e-12 1.99754186557)
(0.0453578742061 1.02010371858e-12 1.99073064019)
(0.0392761748234 -1.58965365746e-12 1.98580435601)
(0.0502447517845 -3.23422331374e-13 1.9757074879)
(0.0405810211186 -4.01681405893e-12 1.96931266918)
(0.0800831430124 -5.65581436359e-12 1.94931747516)
(0.0567758389647 -7.84403150119e-13 1.92944954632)
(0.19030624945 -3.82613210413e-14 1.86616754417)
(-0.107613975809 1.33356016684e-11 13.9434098896)
(-0.474905434399 3.68061510666e-11 5.19696246951)
(0.0688847500628 -2.83881714054e-11 2.60894062229)
(0.189950754395 -6.34360474098e-11 2.26295691978)
(0.178577488799 -1.14645736755e-11 2.15026848043)
(0.15446500648 -1.70664453885e-11 2.09638106655)
(0.127225531187 -2.97865528131e-11 2.06803336949)
(0.107194586393 -1.438795726e-11 2.04937435122)
(0.0887256356302 6.00916364138e-12 2.03455441646)
(0.075214665219 8.61949357035e-12 2.0222310087)
(0.0635001004076 4.03204138172e-12 2.01220743585)
(0.0562624242671 2.33365561806e-12 2.00368255691)
(0.0485475333791 4.80978032054e-12 1.99675971876)
(0.048135826269 1.43809770343e-12 1.98901656228)
(0.0411980822591 -1.86249340271e-12 1.98279308653)
(0.0523947606948 -4.37161349376e-13 1.97152354157)
(0.0408418368876 -3.92545430674e-12 1.96217754866)
(0.0795595641676 -7.97600398142e-12 1.94044756924)
(0.0512313488997 -1.1426137546e-12 1.91032546205)
(0.164700395834 -8.49376003301e-14 1.84465980307)
(-0.0283518424253 1.72564603235e-11 15.304332662)
(-0.4692283638 1.83234947696e-11 5.89437000342)
(-0.0168220292995 -2.99372571131e-11 2.82580587843)
(0.177005575815 -5.77532911379e-11 2.29359808717)
(0.166639979523 -1.50597194427e-11 2.15956302863)
(0.150978537763 -1.75328087403e-11 2.1023935048)
(0.126137765041 -3.65535156935e-11 2.07162468824)
(0.107813559121 -8.61435892262e-12 2.05225163048)
(0.0904777772865 5.46840294411e-12 2.03696653815)
(0.0775833168545 8.22127545514e-12 2.02394571834)
(0.0660355725592 4.06538365826e-12 2.01309229615)
(0.0588853407362 1.02039557313e-11 2.00372202949)
(0.0508245220968 4.79988973274e-12 1.99588683427)
(0.0503524590839 5.62298517824e-12 1.98730145137)
(0.0425416084025 -6.41468670369e-12 1.97981720876)
(0.0535657429357 -8.83092501672e-13 1.96757562719)
(0.0401389148605 -3.86003340401e-12 1.95553439469)
(0.0767427944177 -7.55788760792e-12 1.93295903249)
(0.0443312216214 -4.93353693243e-12 1.89549684525)
(0.137893473904 -3.11293687403e-13 1.83157557838)
(0.0538986764531 1.84201481392e-11 16.5609670895)
(-0.433812258535 -2.17483162832e-11 6.7087247512)
(-0.104646642283 -1.57066072075e-10 3.18452007765)
(0.162103639291 -1.10463823287e-10 2.3228022095)
(0.156667218156 -2.18261941845e-11 2.16961077411)
(0.1495259799 -3.09965808027e-11 2.10733407973)
(0.12553134566 -3.37286894611e-11 2.07409026674)
(0.108588032971 1.17769955009e-13 2.05410517687)
(0.0919937421311 1.74199863614e-11 2.03855486038)
(0.0795845785436 8.46225844441e-12 2.02512915682)
(0.0681621073047 -5.32366752893e-12 2.01366707427)
(0.0610620297244 8.61758030682e-12 2.00361579026)
(0.0526602415456 -1.41030723873e-12 1.99497846649)
(0.0520237815789 6.27806700429e-12 1.98567191127)
(0.043346455451 -1.21944417508e-12 1.97702506821)
(0.0538442627477 -3.8962356104e-12 1.96405240503)
(0.0386865365779 -3.54431215442e-12 1.94971359577)
(0.0723315309136 -3.42837503167e-12 1.92705760596)
(0.0370124446157 -5.01866546126e-12 1.88483493116)
(0.112887475567 -4.16536385275e-12 1.82444353996)
(0.134777877297 -1.99295444262e-12 17.698361771)
(-0.383830799272 -1.70469160138e-10 7.6235565506)
(-0.195658562597 -1.63516377721e-10 3.67673756129)
(0.140412440579 -1.46254284451e-10 2.36341659152)
(0.153246628717 -2.96923624497e-11 2.18613382186)
(0.149813539501 -4.71557126275e-11 2.11296230636)
(0.125904047375 -4.62370194863e-11 2.0765851501)
(0.10975967142 -1.10171530256e-11 2.05542189143)
(0.0935062942909 1.50449308444e-11 2.03959230506)
(0.0813971707833 8.43554189493e-12 2.02590673964)
(0.0700046512173 -2.66547128045e-12 2.01400753089)
(0.062873729082 1.40731064605e-11 2.00342593287)
(0.0541136746084 -1.18859179775e-13 1.9941090899)
(0.0531975708729 -3.82224775955e-13 1.98422019405)
(0.04368449023 -1.88494561781e-12 1.97455436734)
(0.0533664726846 -4.7005341922e-12 1.96110184828)
(0.036714746659 1.82389436568e-12 1.944928749)
(0.0669581060459 -3.69265129158e-12 1.92278078596)
(0.0299310997535 -6.90370993164e-13 1.87787220388)
(0.0910988791322 -3.69507234209e-12 1.82146915052)
(0.220331594308 -1.97708989302e-11 18.7072480657)
(-0.309433200146 -1.8713204331e-10 8.59402130933)
(-0.279432547743 -3.18438579097e-10 4.19067029761)
(0.0907188887167 -1.4453373309e-10 2.45238270799)
(0.151808496322 -3.67756645771e-11 2.2119856339)
(0.147491421656 -4.54287313535e-11 2.1201111842)
(0.126419500471 -4.40472767574e-11 2.0796791788)
(0.110907752477 -1.23994408158e-11 2.05647804174)
(0.0950389844469 1.13666188208e-11 2.04029523486)
(0.0831106532077 8.17701772496e-12 2.02640550655)
(0.071668390944 -8.55169760135e-13 2.01421086593)
(0.0644068379542 1.21636435658e-11 2.00323393288)
(0.0552598406869 2.57763087925e-13 1.99336467476)
(0.0539465107609 -3.33329911841e-13 1.98303729411)
(0.0436496289999 -5.79990437268e-12 1.97252327629)
(0.0522958895355 -4.74614694326e-12 1.95882798039)
(0.0344440990346 1.85025041673e-12 1.94128978083)
(0.0611432801797 -3.14289605682e-12 1.92005100706)
(0.0234905859242 -5.68070171918e-13 1.87398794874)
(0.0728512812053 -3.67577019565e-12 1.82120657315)
(0.301612234562 -4.17679212101e-11 19.4902243028)
(-0.211099879106 -2.18511670174e-10 9.61577890077)
(-0.327227795693 -5.1770603892e-10 4.66841732734)
(0.0172169674792 -1.67323173726e-10 2.59403109411)
(0.147467865064 -4.33993924265e-11 2.23815285222)
(0.141736206113 -4.5940063494e-11 2.1263558741)
(0.127251376148 -4.2772205068e-11 2.08231061767)
(0.111972840818 -2.55926054692e-11 2.05700031653)
(0.096740702981 7.29670366698e-12 2.0406636542)
(0.0848361233306 7.61857952932e-12 2.02669636404)
(0.0732685652708 9.85479230174e-14 2.01436950877)
(0.0657561433365 6.8156891999e-12 2.00312952159)
(0.0561855142399 -5.83413867747e-12 1.9928361125)
(0.0543603860474 -3.63298318761e-13 1.98220861156)
(0.0433473351808 -5.88987967512e-12 1.97102681799)
(0.0508037718685 -1.23116936219e-11 1.95729413905)
(0.0320679625582 -2.60181839378e-12 1.93882450807)
(0.0552805476368 -2.884437517e-12 1.91872316816)
(0.0178922654643 -3.78253025462e-12 1.87255108203)
(0.0579109227172 -3.744204141e-12 1.82260620485)
(0.363012503122 -6.29625189885e-11 20.0455870577)
(-0.113348062523 -2.40537588449e-10 10.6338800605)
(-0.324478422803 -4.87937408552e-10 5.20753921533)
(-0.045514836335 -1.98038274322e-10 2.81345585479)
(0.144922437988 -5.00875129976e-11 2.2633151206)
(0.137658578157 -4.513416691e-11 2.1321243466)
(0.130302474564 -3.37884567118e-11 2.08426594782)
(0.113895285992 -2.64047435486e-11 2.05713070695)
(0.0991128639609 3.80468980828e-12 2.04083130581)
(0.086816487522 6.86325505144e-12 2.02692191516)
(0.0749631211597 1.10338143502e-12 2.01460776542)
(0.0670311334691 4.3115541628e-12 2.00321948673)
(0.0569853203375 -8.72185110066e-13 1.9926185767)
(0.0545378635886 2.35308175357e-12 1.98181233904)
(0.0428847982138 -9.81723418529e-12 1.97013668574)
(0.0490539786513 -1.10168757987e-11 1.95652958738)
(0.0297438783117 -3.27983048818e-12 1.93750279251)
(0.0496465984311 -2.56944809478e-12 1.91862489534)
(0.0132024697128 -4.79318950377e-12 1.87300670066)
(0.045839120707 -3.76103552572e-12 1.82497471653)
(0.40372083869 -7.12275708924e-11 20.4026679428)
(-0.0192645647679 -1.45934315317e-10 11.6071139712)
(-0.290277323518 -3.76401282114e-10 5.86358964714)
(-0.106093925346 -2.4863209669e-10 3.15584815925)
(0.140166244951 -5.81027654496e-11 2.29432401614)
(0.13750211854 -2.73597272603e-11 2.14159988403)
(0.13596388026 -3.27296629783e-11 2.08716485893)
(0.117261783329 -2.64476524899e-11 2.05788527977)
(0.102426678248 8.76255902256e-13 2.04129154835)
(0.0892219236513 6.40623066043e-12 2.027392897)
(0.0768701704031 1.11395111831e-11 2.01511610291)
(0.0683251478864 2.76817864887e-13 2.00363741723)
(0.0577460661335 1.409235795e-12 1.99281197621)
(0.0545753142029 3.00910948561e-12 1.98191913136)
(0.042361715776 -7.47284898097e-13 1.96990324748)
(0.0471923874036 -1.00141417512e-11 1.9565374332)
(0.0275913148475 -3.77226150493e-12 1.93725808024)
(0.0444212902823 2.22712761338e-12 1.91958226533)
(0.00940311259458 -4.62698759015e-12 1.8749007328)
(0.0361572142238 -3.74610465226e-12 1.82786889463)
(0.425120189859 -7.95612105432e-11 20.5831811103)
(0.0647404208847 -1.73993313413e-10 12.491763018)
(-0.238665761848 -3.93660972719e-10 6.6171872223)
(-0.162660385855 -2.69629869097e-10 3.63609892345)
(0.129947542535 -6.64361747757e-11 2.35326309521)
(0.143515743526 -3.0693280774e-11 2.16302693248)
(0.143344273817 -3.00701292151e-11 2.09420041035)
(0.122028591505 -2.5838704867e-11 2.06087689418)
(0.106488613555 -1.49167524585e-12 2.04277308095)
(0.0920271742797 5.69573927889e-12 2.02851894977)
(0.0790008968817 9.36274838081e-12 2.01612016236)
(0.0696852659193 2.76369227724e-12 2.00452823777)